Program Version,EnergyPlus, Version 25.1.0-68a4a7c774, YMD=2025.11.04 12:54
1,5,Environment Title[],Latitude[deg],Longitude[deg],Time Zone[],Elevation[m]
2,8,Day of Simulation[],Month[],Day of Month[],DST Indicator[1=yes 0=no],Hour[],StartMinute[],EndMinute[],DayType
3,5,Cumulative Day of Simulation[],Month[],Day of Month[],DST Indicator[1=yes 0=no],DayType  ! When Daily Report Variables Requested
4,2,Cumulative Days of Simulation[],Month[]  ! When Monthly Report Variables Requested
5,1,Cumulative Days of Simulation[] ! When Run Period Report Variables Requested
6,1,Calendar Year of Simulation[] ! When Annual Report Variables Requested
7,1,Environment,Site Outdoor Air Drybulb Temperature [C] !TimeStep
8,1,CUBO,Zone Mean Air Temperature [C] !TimeStep
End of Data Dictionary
1,RUN PERIOD 1,  18.85, -99.14,  -6.00,1280.00
2,1, 5,15, 0, 1, 0.00, 1.00,Thursday
7,25.4
8,32.120030714507145
2,1, 5,15, 0, 1, 1.00, 2.00,Thursday
7,25.4
8,32.11165969249487
2,1, 5,15, 0, 1, 2.00, 3.00,Thursday
7,25.4
8,32.10326069074916
2,1, 5,15, 0, 1, 3.00, 4.00,Thursday
7,25.4
8,32.094833729084854
2,1, 5,15, 0, 1, 4.00, 5.00,Thursday
7,25.3
8,32.086378822362306
2,1, 5,15, 0, 1, 5.00, 6.00,Thursday
7,25.3
8,32.07789598089096
2,1, 5,15, 0, 1, 6.00, 7.00,Thursday
7,25.3
8,32.0693750031843
2,1, 5,15, 0, 1, 7.00, 8.00,Thursday
7,25.3
8,32.06082178685119
2,1, 5,15, 0, 1, 8.00, 9.00,Thursday
7,25.2
8,32.052241682649225
2,1, 5,15, 0, 1, 9.00,10.00,Thursday
7,25.2
8,32.04363659043482
2,1, 5,15, 0, 1,10.00,11.00,Thursday
7,25.2
8,32.03500629983107
2,1, 5,15, 0, 1,11.00,12.00,Thursday
7,25.2
8,32.02633969947205
2,1, 5,15, 0, 1,12.00,13.00,Thursday
7,25.1
8,32.0176417039203
2,1, 5,15, 0, 1,13.00,14.00,Thursday
7,25.1
8,32.00891674113443
2,1, 5,15, 0, 1,14.00,15.00,Thursday
7,25.1
8,32.000165808008674
2,1, 5,15, 0, 1,15.00,16.00,Thursday
7,25.1
8,31.991377565258333
2,1, 5,15, 0, 1,16.00,17.00,Thursday
7,25.1
8,31.98255606566492
2,1, 5,15, 0, 1,17.00,18.00,Thursday
7,25.0
8,31.973704780524052
2,1, 5,15, 0, 1,18.00,19.00,Thursday
7,25.0
8,31.964813680615578
2,1, 5,15, 0, 1,19.00,20.00,Thursday
7,25.0
8,31.955886872804772
2,1, 5,15, 0, 1,20.00,21.00,Thursday
7,25.0
8,31.94692739800199
2,1, 5,15, 0, 1,21.00,22.00,Thursday
7,24.9
8,31.93792479472783
2,1, 5,15, 0, 1,22.00,23.00,Thursday
7,24.9
8,31.928882949992534
2,1, 5,15, 0, 1,23.00,24.00,Thursday
7,24.9
8,31.919804872089774
2,1, 5,15, 0, 1,24.00,25.00,Thursday
7,24.9
8,31.91068016583768
2,1, 5,15, 0, 1,25.00,26.00,Thursday
7,24.8
8,31.90151296180113
2,1, 5,15, 0, 1,26.00,27.00,Thursday
7,24.8
8,31.892296358741223
2,1, 5,15, 0, 1,27.00,28.00,Thursday
7,24.8
8,31.88303651465908
2,1, 5,15, 0, 1,28.00,29.00,Thursday
7,24.8
8,31.873727203887
2,1, 5,15, 0, 1,29.00,30.00,Thursday
7,24.7
8,31.86437469836329
2,1, 5,15, 0, 1,30.00,31.00,Thursday
7,24.7
8,31.854972788364062
2,1, 5,15, 0, 1,31.00,32.00,Thursday
7,24.7
8,31.845527856595794
2,1, 5,15, 0, 1,32.00,33.00,Thursday
7,24.7
8,31.83603383777955
2,1, 5,15, 0, 1,33.00,34.00,Thursday
7,24.7
8,31.82648712543337
2,1, 5,15, 0, 1,34.00,35.00,Thursday
7,24.6
8,31.816898056794177
2,1, 5,15, 0, 1,35.00,36.00,Thursday
7,24.6
8,31.80726258735129
2,1, 5,15, 0, 1,36.00,37.00,Thursday
7,24.6
8,31.797577609287572
2,1, 5,15, 0, 1,37.00,38.00,Thursday
7,24.6
8,31.787853386996705
2,1, 5,15, 0, 1,38.00,39.00,Thursday
7,24.5
8,31.77808571212931
2,1, 5,15, 0, 1,39.00,40.00,Thursday
7,24.5
8,31.768271392110417
2,1, 5,15, 0, 1,40.00,41.00,Thursday
7,24.5
8,31.75841052295022
2,1, 5,15, 0, 1,41.00,42.00,Thursday
7,24.5
8,31.748515137958453
2,1, 5,15, 0, 1,42.00,43.00,Thursday
7,24.5
8,31.73858141451057
2,1, 5,15, 0, 1,43.00,44.00,Thursday
7,24.4
8,31.72860596300109
2,1, 5,15, 0, 1,44.00,45.00,Thursday
7,24.4
8,31.718588589371674
2,1, 5,15, 0, 1,45.00,46.00,Thursday
7,24.4
8,31.708530934865646
2,1, 5,15, 0, 1,46.00,47.00,Thursday
7,24.4
8,31.6984350796195
2,1, 5,15, 0, 1,47.00,48.00,Thursday
7,24.3
8,31.6883029246993
2,1, 5,15, 0, 1,48.00,49.00,Thursday
7,24.3
8,31.678136081663936
2,1, 5,15, 0, 1,49.00,50.00,Thursday
7,24.3
8,31.66793593538464
2,1, 5,15, 0, 1,50.00,51.00,Thursday
7,24.3
8,31.657703717165873
2,1, 5,15, 0, 1,51.00,52.00,Thursday
7,24.2
8,31.647440548541237
2,1, 5,15, 0, 1,52.00,53.00,Thursday
7,24.2
8,31.637147462404805
2,1, 5,15, 0, 1,53.00,54.00,Thursday
7,24.2
8,31.626825413897453
2,1, 5,15, 0, 1,54.00,55.00,Thursday
7,24.2
8,31.61647528806082
2,1, 5,15, 0, 1,55.00,56.00,Thursday
7,24.2
8,31.60609790657929
2,1, 5,15, 0, 1,56.00,57.00,Thursday
7,24.1
8,31.5956940339026
2,1, 5,15, 0, 1,57.00,58.00,Thursday
7,24.1
8,31.585264382611772
2,1, 5,15, 0, 1,58.00,59.00,Thursday
7,24.1
8,31.574809617984332
2,1, 5,15, 0, 1,59.00,60.00,Thursday
7,24.1
8,31.564330361838586
2,1, 5,15, 0, 2, 0.00, 1.00,Thursday
7,24.0
8,31.55382719578386
2,1, 5,15, 0, 2, 1.00, 2.00,Thursday
7,24.0
8,31.543300663998245
2,1, 5,15, 0, 2, 2.00, 3.00,Thursday
7,24.0
8,31.53275127563505
2,1, 5,15, 0, 2, 3.00, 4.00,Thursday
7,24.0
8,31.522179506940038
2,1, 5,15, 0, 2, 4.00, 5.00,Thursday
7,24.0
8,31.511585803145945
2,1, 5,15, 0, 2, 5.00, 6.00,Thursday
7,23.9
8,31.500960416195888
2,1, 5,15, 0, 2, 6.00, 7.00,Thursday
7,23.9
8,31.49030979411428
2,1, 5,15, 0, 2, 7.00, 8.00,Thursday
7,23.9
8,31.479639719875067
2,1, 5,15, 0, 2, 8.00, 9.00,Thursday
7,23.9
8,31.468952457170563
2,1, 5,15, 0, 2, 9.00,10.00,Thursday
7,23.9
8,31.45824818278977
2,1, 5,15, 0, 2,10.00,11.00,Thursday
7,23.8
8,31.447526459891055
2,1, 5,15, 0, 2,11.00,12.00,Thursday
7,23.8
8,31.43677673046204
2,1, 5,15, 0, 2,12.00,13.00,Thursday
7,23.8
8,31.426004853565445
2,1, 5,15, 0, 2,13.00,14.00,Thursday
7,23.8
8,31.41521618065579
2,1, 5,15, 0, 2,14.00,15.00,Thursday
7,23.7
8,31.404412633380815
2,1, 5,15, 0, 2,15.00,16.00,Thursday
7,23.7
8,31.393594099142568
2,1, 5,15, 0, 2,16.00,17.00,Thursday
7,23.7
8,31.38274970057642
2,1, 5,15, 0, 2,17.00,18.00,Thursday
7,23.7
8,31.371884905496714
2,1, 5,15, 0, 2,18.00,19.00,Thursday
7,23.7
8,31.361004752588613
2,1, 5,15, 0, 2,19.00,20.00,Thursday
7,23.6
8,31.350110934302236
2,1, 5,15, 0, 2,20.00,21.00,Thursday
7,23.6
8,31.339192971552702
2,1, 5,15, 0, 2,21.00,22.00,Thursday
7,23.6
8,31.32825610856338
2,1, 5,15, 0, 2,22.00,23.00,Thursday
7,23.6
8,31.317305052279078
2,1, 5,15, 0, 2,23.00,24.00,Thursday
7,23.6
8,31.306331067937933
2,1, 5,15, 0, 2,24.00,25.00,Thursday
7,23.5
8,31.295339748652342
2,1, 5,15, 0, 2,25.00,26.00,Thursday
7,23.5
8,31.28433555719036
2,1, 5,15, 0, 2,26.00,27.00,Thursday
7,23.5
8,31.273309432334877
2,1, 5,15, 0, 2,27.00,28.00,Thursday
7,23.5
8,31.262266710305525
2,1, 5,15, 0, 2,28.00,29.00,Thursday
7,23.4
8,31.251211680974162
2,1, 5,15, 0, 2,29.00,30.00,Thursday
7,23.4
8,31.24013515508167
2,1, 5,15, 0, 2,30.00,31.00,Thursday
7,23.4
8,31.229042383122472
2,1, 5,15, 0, 2,31.00,32.00,Thursday
7,23.4
8,31.217937585384895
2,1, 5,15, 0, 2,32.00,33.00,Thursday
7,23.4
8,31.20681149373388
2,1, 5,15, 0, 2,33.00,34.00,Thursday
7,23.3
8,31.195669318052037
2,1, 5,15, 0, 2,34.00,35.00,Thursday
7,23.3
8,31.184515245637034
2,1, 5,15, 0, 2,35.00,36.00,Thursday
7,23.3
8,31.173339951381802
2,1, 5,15, 0, 2,36.00,37.00,Thursday
7,23.3
8,31.162148632057164
2,1, 5,15, 0, 2,37.00,38.00,Thursday
7,23.3
8,31.150935291688498
2,1, 5,15, 0, 2,38.00,39.00,Thursday
7,23.2
8,31.139706868013295
2,1, 5,15, 0, 2,39.00,40.00,Thursday
7,23.2
8,31.128467880027763
2,1, 5,15, 0, 2,40.00,41.00,Thursday
7,23.2
8,31.11720874946479
2,1, 5,15, 0, 2,41.00,42.00,Thursday
7,23.2
8,31.105934360745998
2,1, 5,15, 0, 2,42.00,43.00,Thursday
7,23.2
8,31.094638464003953
2,1, 5,15, 0, 2,43.00,44.00,Thursday
7,23.1
8,31.083327858756455
2,1, 5,15, 0, 2,44.00,45.00,Thursday
7,23.1
8,31.07199679249567
2,1, 5,15, 0, 2,45.00,46.00,Thursday
7,23.1
8,31.060651904387715
2,1, 5,15, 0, 2,46.00,47.00,Thursday
7,23.1
8,31.049287177699625
2,1, 5,15, 0, 2,47.00,48.00,Thursday
7,23.1
8,31.037909046542573
2,1, 5,15, 0, 2,48.00,49.00,Thursday
7,23.0
8,31.026511367943304
2,1, 5,15, 0, 2,49.00,50.00,Thursday
7,23.0
8,31.015100498272457
2,1, 5,15, 0, 2,50.00,51.00,Thursday
7,23.0
8,31.00367023439501
2,1, 5,15, 0, 2,51.00,52.00,Thursday
7,23.0
8,30.99222689301572
2,1, 5,15, 0, 2,52.00,53.00,Thursday
7,23.0
8,30.980764228645402
2,1, 5,15, 0, 2,53.00,54.00,Thursday
7,22.9
8,30.96928853654597
2,1, 5,15, 0, 2,54.00,55.00,Thursday
7,22.9
8,30.95779354046606
2,1, 5,15, 0, 2,55.00,56.00,Thursday
7,22.9
8,30.946285528158484
2,1, 5,15, 0, 2,56.00,57.00,Thursday
7,22.9
8,30.934758200909176
2,1, 5,15, 0, 2,57.00,58.00,Thursday
7,22.9
8,30.92321784873108
2,1, 5,15, 0, 2,58.00,59.00,Thursday
7,22.8
8,30.911658155649075
2,1, 5,15, 0, 2,59.00,60.00,Thursday
7,22.8
8,30.900075267978934
2,1, 5,15, 0, 3, 0.00, 1.00,Thursday
7,22.8
8,30.888479164517776
2,1, 5,15, 0, 3, 1.00, 2.00,Thursday
7,22.8
8,30.87686526380529
2,1, 5,15, 0, 3, 2.00, 3.00,Thursday
7,22.8
8,30.8652400336499
2,1, 5,15, 0, 3, 3.00, 4.00,Thursday
7,22.8
8,30.85359679870724
2,1, 5,15, 0, 3, 4.00, 5.00,Thursday
7,22.7
8,30.841931312896282
2,1, 5,15, 0, 3, 5.00, 6.00,Thursday
7,22.7
8,30.830253282839912
2,1, 5,15, 0, 3, 6.00, 7.00,Thursday
7,22.7
8,30.818557939001682
2,1, 5,15, 0, 3, 7.00, 8.00,Thursday
7,22.7
8,30.8068516434412
2,1, 5,15, 0, 3, 8.00, 9.00,Thursday
7,22.7
8,30.795127616924802
2,1, 5,15, 0, 3, 9.00,10.00,Thursday
7,22.6
8,30.783381533725375
2,1, 5,15, 0, 3,10.00,11.00,Thursday
7,22.6
8,30.771623079507048
2,1, 5,15, 0, 3,11.00,12.00,Thursday
7,22.6
8,30.75984742539167
2,1, 5,15, 0, 3,12.00,13.00,Thursday
7,22.6
8,30.74805074865789
2,1, 5,15, 0, 3,13.00,14.00,Thursday
7,22.6
8,30.73624259224386
2,1, 5,15, 0, 3,14.00,15.00,Thursday
7,22.5
8,30.72441786700567
2,1, 5,15, 0, 3,15.00,16.00,Thursday
7,22.5
8,30.71257255558414
2,1, 5,15, 0, 3,16.00,17.00,Thursday
7,22.5
8,30.70071609594522
2,1, 5,15, 0, 3,17.00,18.00,Thursday
7,22.5
8,30.688843321687916
2,1, 5,15, 0, 3,18.00,19.00,Thursday
7,22.5
8,30.676950162137977
2,1, 5,15, 0, 3,19.00,20.00,Thursday
7,22.5
8,30.66503588208832
2,1, 5,15, 0, 3,20.00,21.00,Thursday
7,22.4
8,30.65311161963189
2,1, 5,15, 0, 3,21.00,22.00,Thursday
7,22.4
8,30.64117253709696
2,1, 5,15, 0, 3,22.00,23.00,Thursday
7,22.4
8,30.629214315082244
2,1, 5,15, 0, 3,23.00,24.00,Thursday
7,22.4
8,30.61723589118528
2,1, 5,15, 0, 3,24.00,25.00,Thursday
7,22.4
8,30.605248164882838
2,1, 5,15, 0, 3,25.00,26.00,Thursday
7,22.3
8,30.59324614013241
2,1, 5,15, 0, 3,26.00,27.00,Thursday
7,22.3
8,30.581225393436345
2,1, 5,15, 0, 3,27.00,28.00,Thursday
7,22.3
8,30.56918478879503
2,1, 5,15, 0, 3,28.00,29.00,Thursday
7,22.3
8,30.5571250536743
2,1, 5,15, 0, 3,29.00,30.00,Thursday
7,22.3
8,30.54505746457136
2,1, 5,15, 0, 3,30.00,31.00,Thursday
7,22.3
8,30.532976808810254
2,1, 5,15, 0, 3,31.00,32.00,Thursday
7,22.2
8,30.52087835355951
2,1, 5,15, 0, 3,32.00,33.00,Thursday
7,22.2
8,30.50876073034264
2,1, 5,15, 0, 3,33.00,34.00,Thursday
7,22.2
8,30.496624518774386
2,1, 5,15, 0, 3,34.00,35.00,Thursday
7,22.2
8,30.484470791822474
2,1, 5,15, 0, 3,35.00,36.00,Thursday
7,22.2
8,30.47231058457212
2,1, 5,15, 0, 3,36.00,37.00,Thursday
7,22.2
8,30.460138352320335
2,1, 5,15, 0, 3,37.00,38.00,Thursday
7,22.1
8,30.447949113182116
2,1, 5,15, 0, 3,38.00,39.00,Thursday
7,22.1
8,30.43574133940591
2,1, 5,15, 0, 3,39.00,40.00,Thursday
7,22.1
8,30.423515507879895
2,1, 5,15, 0, 3,40.00,41.00,Thursday
7,22.1
8,30.411272619559146
2,1, 5,15, 0, 3,41.00,42.00,Thursday
7,22.1
8,30.399013543508524
2,1, 5,15, 0, 3,42.00,43.00,Thursday
7,22.1
8,30.386738897605664
2,1, 5,15, 0, 3,43.00,44.00,Thursday
7,22.0
8,30.374459239930943
2,1, 5,15, 0, 3,44.00,45.00,Thursday
7,22.0
8,30.362168676645954
2,1, 5,15, 0, 3,45.00,46.00,Thursday
7,22.0
8,30.349862008050845
2,1, 5,15, 0, 3,46.00,47.00,Thursday
7,22.0
8,30.337537568116733
2,1, 5,15, 0, 3,47.00,48.00,Thursday
7,22.0
8,30.325195736969256
2,1, 5,15, 0, 3,48.00,49.00,Thursday
7,22.0
8,30.31283744273427
2,1, 5,15, 0, 3,49.00,50.00,Thursday
7,21.9
8,30.30046349914283
2,1, 5,15, 0, 3,50.00,51.00,Thursday
7,21.9
8,30.28807448349994
2,1, 5,15, 0, 3,51.00,52.00,Thursday
7,21.9
8,30.27567079852513
2,1, 5,15, 0, 3,52.00,53.00,Thursday
7,21.9
8,30.26325274536104
2,1, 5,15, 0, 3,53.00,54.00,Thursday
7,21.9
8,30.25082056603835
2,1, 5,15, 0, 3,54.00,55.00,Thursday
7,21.9
8,30.238374462526362
2,1, 5,15, 0, 3,55.00,56.00,Thursday
7,21.8
8,30.22591460544029
2,1, 5,15, 0, 3,56.00,57.00,Thursday
7,21.8
8,30.213441139707697
2,1, 5,15, 0, 3,57.00,58.00,Thursday
7,21.8
8,30.200954189547094
2,1, 5,15, 0, 3,58.00,59.00,Thursday
7,21.8
8,30.188453862995683
2,1, 5,15, 0, 3,59.00,60.00,Thursday
7,21.8
8,30.17594025579177
2,1, 5,15, 0, 4, 0.00, 1.00,Thursday
7,21.8
8,30.163413454531163
2,1, 5,15, 0, 4, 1.00, 2.00,Thursday
7,21.8
8,30.150873539159573
2,1, 5,15, 0, 4, 2.00, 3.00,Thursday
7,21.7
8,30.13832058492044
2,1, 5,15, 0, 4, 3.00, 4.00,Thursday
7,21.7
8,30.125754663874382
2,1, 5,15, 0, 4, 4.00, 5.00,Thursday
7,21.7
8,30.113175846081457
2,1, 5,15, 0, 4, 5.00, 6.00,Thursday
7,21.7
8,30.100584200513342
2,1, 5,15, 0, 4, 6.00, 7.00,Thursday
7,21.7
8,30.087979795746964
2,1, 5,15, 0, 4, 7.00, 8.00,Thursday
7,21.7
8,30.075362700483872
2,1, 5,15, 0, 4, 8.00, 9.00,Thursday
7,21.6
8,30.062732983937646
2,1, 5,15, 0, 4, 9.00,10.00,Thursday
7,21.6
8,30.050090716128395
2,1, 5,15, 0, 4,10.00,11.00,Thursday
7,21.6
8,30.037435968116043
2,1, 5,15, 0, 4,11.00,12.00,Thursday
7,21.6
8,30.024768812192836
2,1, 5,15, 0, 4,12.00,13.00,Thursday
7,21.6
8,30.012089322044048
2,1, 5,15, 0, 4,13.00,14.00,Thursday
7,21.6
8,29.99939757287877
2,1, 5,15, 0, 4,14.00,15.00,Thursday
7,21.6
8,29.986693641530447
2,1, 5,15, 0, 4,15.00,16.00,Thursday
7,21.5
8,29.973977606527598
2,1, 5,15, 0, 4,16.00,17.00,Thursday
7,21.5
8,29.961239426824818
2,1, 5,15, 0, 4,17.00,18.00,Thursday
7,21.5
8,29.948485391198066
2,1, 5,15, 0, 4,18.00,19.00,Thursday
7,21.5
8,29.935721030374914
2,1, 5,15, 0, 4,19.00,20.00,Thursday
7,21.5
8,29.922948299650354
2,1, 5,15, 0, 4,20.00,21.00,Thursday
7,21.5
8,29.91016707474937
2,1, 5,15, 0, 4,21.00,22.00,Thursday
7,21.5
8,29.89737665531558
2,1, 5,15, 0, 4,22.00,23.00,Thursday
7,21.4
8,29.884576432613322
2,1, 5,15, 0, 4,23.00,24.00,Thursday
7,21.4
8,29.871766016760308
2,1, 5,15, 0, 4,24.00,25.00,Thursday
7,21.4
8,29.858935060177153
2,1, 5,15, 0, 4,25.00,26.00,Thursday
7,21.4
8,29.846089631978124
2,1, 5,15, 0, 4,26.00,27.00,Thursday
7,21.4
8,29.83323509471668
2,1, 5,15, 0, 4,27.00,28.00,Thursday
7,21.4
8,29.820373270861566
2,1, 5,15, 0, 4,28.00,29.00,Thursday
7,21.4
8,29.807503931324057
2,1, 5,15, 0, 4,29.00,30.00,Thursday
7,21.4
8,29.794626294338933
2,1, 5,15, 0, 4,30.00,31.00,Thursday
7,21.3
8,29.781729573917204
2,1, 5,15, 0, 4,31.00,32.00,Thursday
7,21.3
8,29.76881953639149
2,1, 5,15, 0, 4,32.00,33.00,Thursday
7,21.3
8,29.755901363567176
2,1, 5,15, 0, 4,33.00,34.00,Thursday
7,21.3
8,29.742976765206745
2,1, 5,15, 0, 4,34.00,35.00,Thursday
7,21.3
8,29.730045432117365
2,1, 5,15, 0, 4,35.00,36.00,Thursday
7,21.3
8,29.71709641060468
2,1, 5,15, 0, 4,36.00,37.00,Thursday
7,21.3
8,29.704135179189336
2,1, 5,15, 0, 4,37.00,38.00,Thursday
7,21.3
8,29.69116670420521
2,1, 5,15, 0, 4,38.00,39.00,Thursday
7,21.2
8,29.67819256390903
2,1, 5,15, 0, 4,39.00,40.00,Thursday
7,21.2
8,29.665212368748524
2,1, 5,15, 0, 4,40.00,41.00,Thursday
7,21.2
8,29.652215096129396
2,1, 5,15, 0, 4,41.00,42.00,Thursday
7,21.2
8,29.63920619161907
2,1, 5,15, 0, 4,42.00,43.00,Thursday
7,21.2
8,29.626190597261054
2,1, 5,15, 0, 4,43.00,44.00,Thursday
7,21.2
8,29.613169870365002
2,1, 5,15, 0, 4,44.00,45.00,Thursday
7,21.2
8,29.60013349311067
2,1, 5,15, 0, 4,45.00,46.00,Thursday
7,21.2
8,29.58708675417744
2,1, 5,15, 0, 4,46.00,47.00,Thursday
7,21.1
8,29.57403432676167
2,1, 5,15, 0, 4,47.00,48.00,Thursday
7,21.1
8,29.56097757105401
2,1, 5,15, 0, 4,48.00,49.00,Thursday
7,21.1
8,29.547905849003588
2,1, 5,15, 0, 4,49.00,50.00,Thursday
7,21.1
8,29.53482438174865
2,1, 5,15, 0, 4,50.00,51.00,Thursday
7,21.1
8,29.521737797494065
2,1, 5,15, 0, 4,51.00,52.00,Thursday
7,21.1
8,29.508647421839683
2,1, 5,15, 0, 4,52.00,53.00,Thursday
7,21.1
8,29.49554257743208
2,1, 5,15, 0, 4,53.00,54.00,Thursday
7,21.1
8,29.482428471365285
2,1, 5,15, 0, 4,54.00,55.00,Thursday
7,21.0
8,29.46930972277224
2,1, 5,15, 0, 4,55.00,56.00,Thursday
7,21.0
8,29.456187648950177
2,1, 5,15, 0, 4,56.00,57.00,Thursday
7,21.0
8,29.443051549308255
2,1, 5,15, 0, 4,57.00,58.00,Thursday
7,21.0
8,29.429906636177012
2,1, 5,15, 0, 4,58.00,59.00,Thursday
7,21.0
8,29.416757535134977
2,1, 5,15, 0, 4,59.00,60.00,Thursday
7,21.0
8,29.403595450000388
2,1, 5,15, 0, 5, 0.00, 1.00,Thursday
7,21.0
8,29.390426025223157
2,1, 5,15, 0, 5, 1.00, 2.00,Thursday
7,21.0
8,29.37725369900689
2,1, 5,15, 0, 5, 2.00, 3.00,Thursday
7,21.0
8,29.364069406617446
2,1, 5,15, 0, 5, 3.00, 4.00,Thursday
7,20.9
8,29.350878578250825
2,1, 5,15, 0, 5, 4.00, 5.00,Thursday
7,20.9
8,29.33768551864111
2,1, 5,15, 0, 5, 5.00, 6.00,Thursday
7,20.9
8,29.324481085247875
2,1, 5,15, 0, 5, 6.00, 7.00,Thursday
7,20.9
8,29.31127064883679
2,1, 5,15, 0, 5, 7.00, 8.00,Thursday
7,20.9
8,29.298058467660088
2,1, 5,15, 0, 5, 8.00, 9.00,Thursday
7,20.9
8,29.284835360945547
2,1, 5,15, 0, 5, 9.00,10.00,Thursday
7,20.9
8,29.271606671018755
2,1, 5,15, 0, 5,10.00,11.00,Thursday
7,20.9
8,29.258376633849988
2,1, 5,15, 0, 5,11.00,12.00,Thursday
7,20.9
8,29.245136046013414
2,1, 5,15, 0, 5,12.00,13.00,Thursday
7,20.9
8,29.231890238886738
2,1, 5,15, 0, 5,13.00,14.00,Thursday
7,20.8
8,29.218643440473134
2,1, 5,15, 0, 5,14.00,15.00,Thursday
7,20.8
8,29.20538643329031
2,1, 5,15, 0, 5,15.00,16.00,Thursday
7,20.8
8,29.192124547206824
2,1, 5,15, 0, 5,16.00,17.00,Thursday
7,20.8
8,29.17886200970516
2,1, 5,15, 0, 5,17.00,18.00,Thursday
7,20.8
8,29.165589593327155
2,1, 5,15, 0, 5,18.00,19.00,Thursday
7,20.8
8,29.15231263093756
2,1, 5,15, 0, 5,19.00,20.00,Thursday
7,20.8
8,29.13903535290133
2,1, 5,15, 0, 5,20.00,21.00,Thursday
7,20.8
8,29.125748523531612
2,1, 5,15, 0, 5,21.00,22.00,Thursday
7,20.8
8,29.11245748081057
2,1, 5,15, 0, 5,22.00,23.00,Thursday
7,20.8
8,29.099166459848917
2,1, 5,15, 0, 5,23.00,24.00,Thursday
7,20.8
8,29.08586621818576
2,1, 5,15, 0, 5,24.00,25.00,Thursday
7,20.7
8,29.072562100521736
2,1, 5,15, 0, 5,25.00,26.00,Thursday
7,20.7
8,29.059258348167013
2,1, 5,15, 0, 5,26.00,27.00,Thursday
7,20.7
8,29.045945713168898
2,1, 5,15, 0, 5,27.00,28.00,Thursday
7,20.7
8,29.032629547640322
2,1, 5,15, 0, 5,28.00,29.00,Thursday
7,20.7
8,29.019304003996233
2,1, 5,15, 0, 5,29.00,30.00,Thursday
7,20.7
8,29.005976172645937
2,1, 5,15, 0, 5,30.00,31.00,Thursday
7,20.7
8,28.992650619903856
2,1, 5,15, 0, 5,31.00,32.00,Thursday
7,20.7
8,28.979317878250477
2,1, 5,15, 0, 5,32.00,33.00,Thursday
7,20.7
8,28.965982971786296
2,1, 5,15, 0, 5,33.00,34.00,Thursday
7,20.7
8,28.952649908280023
2,1, 5,15, 0, 5,34.00,35.00,Thursday
7,20.7
8,28.9393093008131
2,1, 5,15, 0, 5,35.00,36.00,Thursday
7,20.7
8,28.925966408073574
2,1, 5,15, 0, 5,36.00,37.00,Thursday
7,20.6
8,28.91261531594899
2,1, 5,15, 0, 5,37.00,38.00,Thursday
7,20.6
8,28.899263065074216
2,1, 5,15, 0, 5,38.00,39.00,Thursday
7,20.6
8,28.885914183884985
2,1, 5,15, 0, 5,39.00,40.00,Thursday
7,20.6
8,28.87255917130439
2,1, 5,15, 0, 5,40.00,41.00,Thursday
7,20.6
8,28.859203033182627
2,1, 5,15, 0, 5,41.00,42.00,Thursday
7,20.6
8,28.845839679143044
2,1, 5,15, 0, 5,42.00,43.00,Thursday
7,20.6
8,28.83247603690685
2,1, 5,15, 0, 5,43.00,44.00,Thursday
7,20.6
8,28.819116568955916
2,1, 5,15, 0, 5,44.00,45.00,Thursday
7,20.6
8,28.805751737001504
2,1, 5,15, 0, 5,45.00,46.00,Thursday
7,20.6
8,28.79238651299577
2,1, 5,15, 0, 5,46.00,47.00,Thursday
7,20.6
8,28.779014782319393
2,1, 5,15, 0, 5,47.00,48.00,Thursday
7,20.6
8,28.765643451331957
2,1, 5,15, 0, 5,48.00,49.00,Thursday
7,20.6
8,28.752276967405173
2,1, 5,15, 0, 5,49.00,50.00,Thursday
7,20.6
8,28.738905783170875
2,1, 5,15, 0, 5,50.00,51.00,Thursday
7,20.5
8,28.72553486410768
2,1, 5,15, 0, 5,51.00,52.00,Thursday
7,20.5
8,28.712158091566188
2,1, 5,15, 0, 5,52.00,53.00,Thursday
7,20.5
8,28.69878236959807
2,1, 5,15, 0, 5,53.00,54.00,Thursday
7,20.5
8,28.685412144410165
2,1, 5,15, 0, 5,54.00,55.00,Thursday
7,20.5
8,28.67203786755392
2,1, 5,15, 0, 5,55.00,56.00,Thursday
7,20.5
8,28.65866450413903
2,1, 5,15, 0, 5,56.00,57.00,Thursday
7,20.5
8,28.64528593503488
2,1, 5,15, 0, 5,57.00,58.00,Thursday
7,20.5
8,28.631909064393156
2,1, 5,15, 0, 5,58.00,59.00,Thursday
7,20.5
8,28.61853833908138
2,1, 5,15, 0, 5,59.00,60.00,Thursday
7,20.5
8,28.605164212112065
2,1, 5,15, 0, 6, 0.00, 1.00,Thursday
7,20.5
8,28.5917916503609
2,1, 5,15, 0, 6, 1.00, 2.00,Thursday
7,20.5
8,28.578414538125372
2,1, 5,15, 0, 6, 2.00, 3.00,Thursday
7,20.5
8,28.565039782666183
2,1, 5,15, 0, 6, 3.00, 4.00,Thursday
7,20.6
8,28.551671834820304
2,1, 5,15, 0, 6, 4.00, 5.00,Thursday
7,20.6
8,28.538301153777688
2,1, 5,15, 0, 6, 5.00, 6.00,Thursday
7,20.6
8,28.524932709670498
2,1, 5,15, 0, 6, 6.00, 7.00,Thursday
7,20.6
8,28.51156039208238
2,1, 5,15, 0, 6, 7.00, 8.00,Thursday
7,20.6
8,28.4981911092827
2,1, 5,15, 0, 6, 8.00, 9.00,Thursday
7,20.6
8,28.484829312718748
2,1, 5,15, 0, 6, 9.00,10.00,Thursday
7,20.7
8,28.47146546570183
2,1, 5,15, 0, 6,10.00,11.00,Thursday
7,20.7
8,28.458104535924207
2,1, 5,15, 0, 6,11.00,12.00,Thursday
7,20.7
8,28.444740414771246
2,1, 5,15, 0, 6,12.00,13.00,Thursday
7,20.7
8,28.431380005979932
2,1, 5,15, 0, 6,13.00,14.00,Thursday
7,20.7
8,28.418027758010886
2,1, 5,15, 0, 6,14.00,15.00,Thursday
7,20.8
8,28.404674139925287
2,1, 5,15, 0, 6,15.00,16.00,Thursday
7,20.8
8,28.39132411817163
2,1, 5,15, 0, 6,16.00,17.00,Thursday
7,20.8
8,28.377971593027805
2,1, 5,15, 0, 6,17.00,18.00,Thursday
7,20.8
8,28.364623471550363
2,1, 5,15, 0, 6,18.00,19.00,Thursday
7,20.8
8,28.351284211611272
2,1, 5,15, 0, 6,19.00,20.00,Thursday
7,20.9
8,28.33794430772129
2,1, 5,15, 0, 6,20.00,21.00,Thursday
7,20.9
8,28.32460874514412
2,1, 5,15, 0, 6,21.00,22.00,Thursday
7,20.9
8,28.311281519674385
2,1, 5,15, 0, 6,22.00,23.00,Thursday
7,20.9
8,28.29795328083977
2,1, 5,15, 0, 6,23.00,24.00,Thursday
7,20.9
8,28.284629314215337
2,1, 5,15, 0, 6,24.00,25.00,Thursday
7,20.9
8,28.271303777913012
2,1, 5,15, 0, 6,25.00,26.00,Thursday
7,21.0
8,28.257983773698076
2,1, 5,15, 0, 6,26.00,27.00,Thursday
7,21.0
8,28.244673917068702
2,1, 5,15, 0, 6,27.00,28.00,Thursday
7,21.0
8,28.231364851653186
2,1, 5,15, 0, 6,28.00,29.00,Thursday
7,21.0
8,28.218061701117023
2,1, 5,15, 0, 6,29.00,30.00,Thursday
7,21.1
8,28.20476860131891
2,1, 5,15, 0, 6,30.00,31.00,Thursday
7,21.1
8,28.191476357472187
2,1, 5,15, 0, 6,31.00,32.00,Thursday
7,21.1
8,28.178190392899527
2,1, 5,15, 0, 6,32.00,33.00,Thursday
7,21.1
8,28.16491507958391
2,1, 5,15, 0, 6,33.00,34.00,Thursday
7,21.1
8,28.151641377637443
2,1, 5,15, 0, 6,34.00,35.00,Thursday
7,21.2
8,28.138374827416943
2,1, 5,15, 0, 6,35.00,36.00,Thursday
7,21.2
8,28.125119897711382
2,1, 5,15, 0, 6,36.00,37.00,Thursday
7,21.2
8,28.11186763666023
2,1, 5,15, 0, 6,37.00,38.00,Thursday
7,21.2
8,28.098623661535846
2,1, 5,15, 0, 6,38.00,39.00,Thursday
7,21.2
8,28.085392511602095
2,1, 5,15, 0, 6,39.00,40.00,Thursday
7,21.3
8,28.072165307258636
2,1, 5,15, 0, 6,40.00,41.00,Thursday
7,21.3
8,28.058947720836596
2,1, 5,15, 0, 6,41.00,42.00,Thursday
7,21.3
8,28.045744342171908
2,1, 5,15, 0, 6,42.00,43.00,Thursday
7,21.3
8,28.032546351868266
2,1, 5,15, 0, 6,43.00,44.00,Thursday
7,21.3
8,28.019359460688122
2,1, 5,15, 0, 6,44.00,45.00,Thursday
7,21.4
8,28.006188294407824
2,1, 5,15, 0, 6,45.00,46.00,Thursday
7,21.4
8,27.993024085943297
2,1, 5,15, 0, 6,46.00,47.00,Thursday
7,21.4
8,27.979872571721163
2,1, 5,15, 0, 6,47.00,48.00,Thursday
7,21.4
8,27.96673840186689
2,1, 5,15, 0, 6,48.00,49.00,Thursday
7,21.5
8,27.953612855822744
2,1, 5,15, 0, 6,49.00,50.00,Thursday
7,21.5
8,27.940501684697043
2,1, 5,15, 0, 6,50.00,51.00,Thursday
7,21.5
8,27.927409552729266
2,1, 5,15, 0, 6,51.00,52.00,Thursday
7,21.5
8,27.914337817209216
2,1, 5,15, 0, 6,52.00,53.00,Thursday
7,21.6
8,27.90127600945996
2,1, 5,15, 0, 6,53.00,54.00,Thursday
7,21.6
8,27.888229571837183
2,1, 5,15, 0, 6,54.00,55.00,Thursday
7,21.6
8,27.875203435613713
2,1, 5,15, 0, 6,55.00,56.00,Thursday
7,21.6
8,27.86219929184234
2,1, 5,15, 0, 6,56.00,57.00,Thursday
7,21.6
8,27.849206925049508
2,1, 5,15, 0, 6,57.00,58.00,Thursday
7,21.7
8,27.836231928051298
2,1, 5,15, 0, 6,58.00,59.00,Thursday
7,21.7
8,27.823279330483413
2,1, 5,15, 0, 6,59.00,60.00,Thursday
7,21.7
8,27.810350896893787
2,1, 5,15, 0, 7, 0.00, 1.00,Thursday
7,21.8
8,27.7974465393035
2,1, 5,15, 0, 7, 1.00, 2.00,Thursday
7,21.9
8,27.784555663306065
2,1, 5,15, 0, 7, 2.00, 3.00,Thursday
7,22.0
8,27.771684081848775
2,1, 5,15, 0, 7, 3.00, 4.00,Thursday
7,22.1
8,27.758837135936037
2,1, 5,15, 0, 7, 4.00, 5.00,Thursday
7,22.1
8,27.74601682241604
2,1, 5,15, 0, 7, 5.00, 6.00,Thursday
7,22.2
8,27.733223199525522
2,1, 5,15, 0, 7, 6.00, 7.00,Thursday
7,22.3
8,27.72045583218246
2,1, 5,15, 0, 7, 7.00, 8.00,Thursday
7,22.4
8,27.707714431620886
2,1, 5,15, 0, 7, 8.00, 9.00,Thursday
7,22.5
8,27.694988915727855
2,1, 5,15, 0, 7, 9.00,10.00,Thursday
7,22.6
8,27.68228560672992
2,1, 5,15, 0, 7,10.00,11.00,Thursday
7,22.6
8,27.66961019696178
2,1, 5,15, 0, 7,11.00,12.00,Thursday
7,22.7
8,27.656964904902022
2,1, 5,15, 0, 7,12.00,13.00,Thursday
7,22.8
8,27.64434993510822
2,1, 5,15, 0, 7,13.00,14.00,Thursday
7,22.9
8,27.631764958185077
2,1, 5,15, 0, 7,14.00,15.00,Thursday
7,23.0
8,27.61920976658751
2,1, 5,15, 0, 7,15.00,16.00,Thursday
7,23.1
8,27.606684396199675
2,1, 5,15, 0, 7,16.00,17.00,Thursday
7,23.2
8,27.594189066048312
2,1, 5,15, 0, 7,17.00,18.00,Thursday
7,23.3
8,27.58172410720573
2,1, 5,15, 0, 7,18.00,19.00,Thursday
7,23.3
8,27.56928992231099
2,1, 5,15, 0, 7,19.00,20.00,Thursday
7,23.4
8,27.5568869686758
2,1, 5,15, 0, 7,20.00,21.00,Thursday
7,23.5
8,27.544515751964788
2,1, 5,15, 0, 7,21.00,22.00,Thursday
7,23.6
8,27.532176823109296
2,1, 5,15, 0, 7,22.00,23.00,Thursday
7,23.7
8,27.519870776010602
2,1, 5,15, 0, 7,23.00,24.00,Thursday
7,23.8
8,27.507598245697732
2,1, 5,15, 0, 7,24.00,25.00,Thursday
7,23.9
8,27.495359907050908
2,1, 5,15, 0, 7,25.00,26.00,Thursday
7,24.0
8,27.483156474106085
2,1, 5,15, 0, 7,26.00,27.00,Thursday
7,24.0
8,27.470988699827014
2,1, 5,15, 0, 7,27.00,28.00,Thursday
7,24.1
8,27.458867406453894
2,1, 5,15, 0, 7,28.00,29.00,Thursday
7,24.2
8,27.44678728446869
2,1, 5,15, 0, 7,29.00,30.00,Thursday
7,24.3
8,27.434743810253945
2,1, 5,15, 0, 7,30.00,31.00,Thursday
7,24.4
8,27.42273603774012
2,1, 5,15, 0, 7,31.00,32.00,Thursday
7,24.5
8,27.41076512057473
2,1, 5,15, 0, 7,32.00,33.00,Thursday
7,24.6
8,27.398842847079692
2,1, 5,15, 0, 7,33.00,34.00,Thursday
7,24.7
8,27.386964799857633
2,1, 5,15, 0, 7,34.00,35.00,Thursday
7,24.8
8,27.37512713161658
2,1, 5,15, 0, 7,35.00,36.00,Thursday
7,24.9
8,27.36332940966591
2,1, 5,15, 0, 7,36.00,37.00,Thursday
7,24.9
8,27.351583198928076
2,1, 5,15, 0, 7,37.00,38.00,Thursday
7,25.0
8,27.339884512584884
2,1, 5,15, 0, 7,38.00,39.00,Thursday
7,25.1
8,27.328230019478582
2,1, 5,15, 0, 7,39.00,40.00,Thursday
7,25.2
8,27.316629684261954
2,1, 5,15, 0, 7,40.00,41.00,Thursday
7,25.3
8,27.305079283466803
2,1, 5,15, 0, 7,41.00,42.00,Thursday
7,25.4
8,27.293585838973332
2,1, 5,15, 0, 7,42.00,43.00,Thursday
7,25.5
8,27.282143624821998
2,1, 5,15, 0, 7,43.00,44.00,Thursday
7,25.6
8,27.270759493220364
2,1, 5,15, 0, 7,44.00,45.00,Thursday
7,25.7
8,27.259428074182814
2,1, 5,15, 0, 7,45.00,46.00,Thursday
7,25.8
8,27.24815661787384
2,1, 5,15, 0, 7,46.00,47.00,Thursday
7,25.8
8,27.236940079977593
2,1, 5,15, 0, 7,47.00,48.00,Thursday
7,25.9
8,27.225785910434148
2,1, 5,15, 0, 7,48.00,49.00,Thursday
7,26.0
8,27.214689248089666
2,1, 5,15, 0, 7,49.00,50.00,Thursday
7,26.1
8,27.203657639400863
2,1, 5,15, 0, 7,50.00,51.00,Thursday
7,26.2
8,27.192696352221986
2,1, 5,15, 0, 7,51.00,52.00,Thursday
7,26.3
8,27.181796989149895
2,1, 5,15, 0, 7,52.00,53.00,Thursday
7,26.4
8,27.170965508358204
2,1, 5,15, 0, 7,53.00,54.00,Thursday
7,26.5
8,27.160207061991617
2,1, 5,15, 0, 7,54.00,55.00,Thursday
7,26.6
8,27.14952371565296
2,1, 5,15, 0, 7,55.00,56.00,Thursday
7,26.7
8,27.13891588782486
2,1, 5,15, 0, 7,56.00,57.00,Thursday
7,26.8
8,27.12837364535434
2,1, 5,15, 0, 7,57.00,58.00,Thursday
7,26.9
8,27.117903321458705
2,1, 5,15, 0, 7,58.00,59.00,Thursday
7,26.9
8,27.107510953000162
2,1, 5,15, 0, 7,59.00,60.00,Thursday
7,27.0
8,27.097199376699116
2,1, 5,15, 0, 8, 0.00, 1.00,Thursday
7,27.1
8,27.086969551150357
2,1, 5,15, 0, 8, 1.00, 2.00,Thursday
7,27.2
8,27.076821953606945
2,1, 5,15, 0, 8, 2.00, 3.00,Thursday
7,27.3
8,27.066757204014564
2,1, 5,15, 0, 8, 3.00, 4.00,Thursday
7,27.4
8,27.05677617781881
2,1, 5,15, 0, 8, 4.00, 5.00,Thursday
7,27.5
8,27.046879942027473
2,1, 5,15, 0, 8, 5.00, 6.00,Thursday
7,27.6
8,27.03707969859875
2,1, 5,15, 0, 8, 6.00, 7.00,Thursday
7,27.7
8,27.027370741854778
2,1, 5,15, 0, 8, 7.00, 8.00,Thursday
7,27.8
8,27.017749035036463
2,1, 5,15, 0, 8, 8.00, 9.00,Thursday
7,27.8
8,27.00821400689053
2,1, 5,15, 0, 8, 9.00,10.00,Thursday
7,27.9
8,26.998777118928462
2,1, 5,15, 0, 8,10.00,11.00,Thursday
7,28.0
8,26.989434518830304
2,1, 5,15, 0, 8,11.00,12.00,Thursday
7,28.1
8,26.980192924337004
2,1, 5,15, 0, 8,12.00,13.00,Thursday
7,28.2
8,26.971046320277143
2,1, 5,15, 0, 8,13.00,14.00,Thursday
7,28.3
8,26.962001181478417
2,1, 5,15, 0, 8,14.00,15.00,Thursday
7,28.4
8,26.953051964467516
2,1, 5,15, 0, 8,15.00,16.00,Thursday
7,28.5
8,26.944205602173913
2,1, 5,15, 0, 8,16.00,17.00,Thursday
7,28.6
8,26.93546693978148
2,1, 5,15, 0, 8,17.00,18.00,Thursday
7,28.7
8,26.92682724615116
2,1, 5,15, 0, 8,18.00,19.00,Thursday
7,28.7
8,26.918291996708817
2,1, 5,15, 0, 8,19.00,20.00,Thursday
7,28.8
8,26.909865959179825
2,1, 5,15, 0, 8,20.00,21.00,Thursday
7,28.9
8,26.901550888614466
2,1, 5,15, 0, 8,21.00,22.00,Thursday
7,29.0
8,26.893346902800346
2,1, 5,15, 0, 8,22.00,23.00,Thursday
7,29.1
8,26.885253789495547
2,1, 5,15, 0, 8,23.00,24.00,Thursday
7,29.2
8,26.877271556282125
2,1, 5,15, 0, 8,24.00,25.00,Thursday
7,29.3
8,26.86940050810569
2,1, 5,15, 0, 8,25.00,26.00,Thursday
7,29.4
8,26.861641171068335
2,1, 5,15, 0, 8,26.00,27.00,Thursday
7,29.5
8,26.853994212408843
2,1, 5,15, 0, 8,27.00,28.00,Thursday
7,29.5
8,26.84646039089513
2,1, 5,15, 0, 8,28.00,29.00,Thursday
7,29.6
8,26.839050574553692
2,1, 5,15, 0, 8,29.00,30.00,Thursday
7,29.7
8,26.83175979823353
2,1, 5,15, 0, 8,30.00,31.00,Thursday
7,29.8
8,26.824583705323892