Program Version,EnergyPlus, Version 25.1.0-68a4a7c774, YMD=2025.11.04 12:55
1,5,Environment Title[],Latitude[deg],Longitude[deg],Time Zone[],Elevation[m]
2,8,Day of Simulation[],Month[],Day of Month[],DST Indicator[1=yes 0=no],Hour[],StartMinute[],EndMinute[],DayType
3,5,Cumulative Day of Simulation[],Month[],Day of Month[],DST Indicator[1=yes 0=no],DayType  ! When Daily Report Variables Requested
4,2,Cumulative Days of Simulation[],Month[]  ! When Monthly Report Variables Requested
5,1,Cumulative Days of Simulation[] ! When Run Period Report Variables Requested
6,1,Calendar Year of Simulation[] ! When Annual Report Variables Requested
7,1,Environment,Site Outdoor Air Drybulb Temperature [C] !TimeStep
8,1,CUBO,Zone Mean Air Temperature [C] !TimeStep
End of Data Dictionary
1,RUN PERIOD 1,  18.85, -99.14,  -6.00,1280.00
2,1, 5,15, 0, 1, 0.00, 1.00,Thursday
7,25.4
8,31.726181952053917
2,1, 5,15, 0, 1, 1.00, 2.00,Thursday
7,25.4
8,31.71224821132693
2,1, 5,15, 0, 1, 2.00, 3.00,Thursday
7,25.4
8,31.698280868383154
2,1, 5,15, 0, 1, 3.00, 4.00,Thursday
7,25.4
8,31.68428964771337
2,1, 5,15, 0, 1, 4.00, 5.00,Thursday
7,25.3
8,31.670269277133947
2,1, 5,15, 0, 1, 5.00, 6.00,Thursday
7,25.3
8,31.656215222665388
2,1, 5,15, 0, 1, 6.00, 7.00,Thursday
7,25.3
8,31.64213568683267
2,1, 5,15, 0, 1, 7.00, 8.00,Thursday
7,25.3
8,31.628022949679227
2,1, 5,15, 0, 1, 8.00, 9.00,Thursday
7,25.2
8,31.613869115020833
2,1, 5,15, 0, 1, 9.00,10.00,Thursday
7,25.2
8,31.599668288487113
2,1, 5,15, 0, 1,10.00,11.00,Thursday
7,25.2
8,31.585425267853307
2,1, 5,15, 0, 1,11.00,12.00,Thursday
7,25.2
8,31.571127802252636
2,1, 5,15, 0, 1,12.00,13.00,Thursday
7,25.1
8,31.556763904518892
2,1, 5,15, 0, 1,13.00,14.00,Thursday
7,25.1
8,31.542325056091464
2,1, 5,15, 0, 1,14.00,15.00,Thursday
7,25.1
8,31.527805159206544
2,1, 5,15, 0, 1,15.00,16.00,Thursday
7,25.1
8,31.513199429395513
2,1, 5,15, 0, 1,16.00,17.00,Thursday
7,25.1
8,31.498504015883046
2,1, 5,15, 0, 1,17.00,18.00,Thursday
7,25.0
8,31.483716045440985
2,1, 5,15, 0, 1,18.00,19.00,Thursday
7,25.0
8,31.468833747829084
2,1, 5,15, 0, 1,19.00,20.00,Thursday
7,25.0
8,31.453856511904597
2,1, 5,15, 0, 1,20.00,21.00,Thursday
7,25.0
8,31.4387848524778
2,1, 5,15, 0, 1,21.00,22.00,Thursday
7,24.9
8,31.423620314388632
2,1, 5,15, 0, 1,22.00,23.00,Thursday
7,24.9
8,31.40836534296491
2,1, 5,15, 0, 1,23.00,24.00,Thursday
7,24.9
8,31.393012981919018
2,1, 5,15, 0, 1,24.00,25.00,Thursday
7,24.9
8,31.377573452651863
2,1, 5,15, 0, 1,25.00,26.00,Thursday
7,24.8
8,31.362056550079025
2,1, 5,15, 0, 1,26.00,27.00,Thursday
7,24.8
8,31.34645856036898
2,1, 5,15, 0, 1,27.00,28.00,Thursday
7,24.8
8,31.330790449628577
2,1, 5,15, 0, 1,28.00,29.00,Thursday
7,24.8
8,31.315061842570906
2,1, 5,15, 0, 1,29.00,30.00,Thursday
7,24.7
8,31.299268604240794
2,1, 5,15, 0, 1,30.00,31.00,Thursday
7,24.7
8,31.283421331489905
2,1, 5,15, 0, 1,31.00,32.00,Thursday
7,24.7
8,31.267519014996715
2,1, 5,15, 0, 1,32.00,33.00,Thursday
7,24.7
8,31.25157362681533
2,1, 5,15, 0, 1,33.00,34.00,Thursday
7,24.7
8,31.235583994772153
2,1, 5,15, 0, 1,34.00,35.00,Thursday
7,24.6
8,31.219561311619458
2,1, 5,15, 0, 1,35.00,36.00,Thursday
7,24.6
8,31.203503506823143
2,1, 5,15, 0, 1,36.00,37.00,Thursday
7,24.6
8,31.187410826099043
2,1, 5,15, 0, 1,37.00,38.00,Thursday
7,24.6
8,31.17129712290221
2,1, 5,15, 0, 1,38.00,39.00,Thursday
7,24.5
8,31.155160975591077
2,1, 5,15, 0, 1,39.00,40.00,Thursday
7,24.5
8,31.139011904229125
2,1, 5,15, 0, 1,40.00,41.00,Thursday
7,24.5
8,31.122845744407634
2,1, 5,15, 0, 1,41.00,42.00,Thursday
7,24.5
8,31.106660748248714
2,1, 5,15, 0, 1,42.00,43.00,Thursday
7,24.5
8,31.09046902964026
2,1, 5,15, 0, 1,43.00,44.00,Thursday
7,24.4
8,31.0742675830777
2,1, 5,15, 0, 1,44.00,45.00,Thursday
7,24.4
8,31.05805436353904
2,1, 5,15, 0, 1,45.00,46.00,Thursday
7,24.4
8,31.041840582280695
2,1, 5,15, 0, 1,46.00,47.00,Thursday
7,24.4
8,31.025622291148494
2,1, 5,15, 0, 1,47.00,48.00,Thursday
7,24.3
8,31.009396633525874
2,1, 5,15, 0, 1,48.00,49.00,Thursday
7,24.3
8,30.993174142651277
2,1, 5,15, 0, 1,49.00,50.00,Thursday
7,24.3
8,30.976950291340682
2,1, 5,15, 0, 1,50.00,51.00,Thursday
7,24.3
8,30.96072171417079
2,1, 5,15, 0, 1,51.00,52.00,Thursday
7,24.2
8,30.9444984916984
2,1, 5,15, 0, 1,52.00,53.00,Thursday
7,24.2
8,30.92827569224124
2,1, 5,15, 0, 1,53.00,54.00,Thursday
7,24.2
8,30.91204958964504
2,1, 5,15, 0, 1,54.00,55.00,Thursday
7,24.2
8,30.895829942429916
2,1, 5,15, 0, 1,55.00,56.00,Thursday
7,24.2
8,30.879611532468747
2,1, 5,15, 0, 1,56.00,57.00,Thursday
7,24.1
8,30.863390377067716
2,1, 5,15, 0, 1,57.00,58.00,Thursday
7,24.1
8,30.84717600223341
2,1, 5,15, 0, 1,58.00,59.00,Thursday
7,24.1
8,30.83096298342517
2,1, 5,15, 0, 1,59.00,60.00,Thursday
7,24.1
8,30.81474715155777
2,1, 5,15, 0, 2, 0.00, 1.00,Thursday
7,24.0
8,30.798537861138964
2,1, 5,15, 0, 2, 1.00, 2.00,Thursday
7,24.0
8,30.782329538627952
2,1, 5,15, 0, 2, 2.00, 3.00,Thursday
7,24.0
8,30.766117883124128
2,1, 5,15, 0, 2, 3.00, 4.00,Thursday
7,24.0
8,30.74991213024874
2,1, 5,15, 0, 2, 4.00, 5.00,Thursday
7,24.0
8,30.733706609864203
2,1, 5,15, 0, 2, 5.00, 6.00,Thursday
7,23.9
8,30.717496939744326
2,1, 5,15, 0, 2, 6.00, 7.00,Thursday
7,23.9
8,30.701292283730012
2,1, 5,15, 0, 2, 7.00, 8.00,Thursday
7,23.9
8,30.685086917162838
2,1, 5,15, 0, 2, 8.00, 9.00,Thursday
7,23.9
8,30.66887641291151
2,1, 5,15, 0, 2, 9.00,10.00,Thursday
7,23.9
8,30.652669894627156
2,1, 5,15, 0, 2,10.00,11.00,Thursday
7,23.8
8,30.63646160931772
2,1, 5,15, 0, 2,11.00,12.00,Thursday
7,23.8
8,30.620247108769025
2,1, 5,15, 0, 2,12.00,13.00,Thursday
7,23.8
8,30.604035500733357
2,1, 5,15, 0, 2,13.00,14.00,Thursday
7,23.8
8,30.587821026091
2,1, 5,15, 0, 2,14.00,15.00,Thursday
7,23.7
8,30.57159923735896
2,1, 5,15, 0, 2,15.00,16.00,Thursday
7,23.7
8,30.55537924930891
2,1, 5,15, 0, 2,16.00,17.00,Thursday
7,23.7
8,30.5391553166442
2,1, 5,15, 0, 2,17.00,18.00,Thursday
7,23.7
8,30.522923011804508
2,1, 5,15, 0, 2,18.00,19.00,Thursday
7,23.7
8,30.506691476271865
2,1, 5,15, 0, 2,19.00,20.00,Thursday
7,23.6
8,30.490454992907722
2,1, 5,15, 0, 2,20.00,21.00,Thursday
7,23.6
8,30.47420916453962
2,1, 5,15, 0, 2,21.00,22.00,Thursday
7,23.6
8,30.457963167230215
2,1, 5,15, 0, 2,22.00,23.00,Thursday
7,23.6
8,30.44171131214289
2,1, 5,15, 0, 2,23.00,24.00,Thursday
7,23.6
8,30.42544922849836
2,1, 5,15, 0, 2,24.00,25.00,Thursday
7,23.5
8,30.409186122739783
2,1, 5,15, 0, 2,25.00,26.00,Thursday
7,23.5
8,30.39291632729042
2,1, 5,15, 0, 2,26.00,27.00,Thursday
7,23.5
8,30.37663549249836
2,1, 5,15, 0, 2,27.00,28.00,Thursday
7,23.5
8,30.360352854465145
2,1, 5,15, 0, 2,28.00,29.00,Thursday
7,23.4
8,30.344062765776957
2,1, 5,15, 0, 2,29.00,30.00,Thursday
7,23.4
8,30.32776089886444
2,1, 5,15, 0, 2,30.00,31.00,Thursday
7,23.4
8,30.31145652432904
2,1, 5,15, 0, 2,31.00,32.00,Thursday
7,23.4
8,30.29514401878118
2,1, 5,15, 0, 2,32.00,33.00,Thursday
7,23.4
8,30.27881908125503
2,1, 5,15, 0, 2,33.00,34.00,Thursday
7,23.3
8,30.262480894011553
2,1, 5,15, 0, 2,34.00,35.00,Thursday
7,23.3
8,30.246140497585753
2,1, 5,15, 0, 2,35.00,36.00,Thursday
7,23.3
8,30.229792616323458
2,1, 5,15, 0, 2,36.00,37.00,Thursday
7,23.3
8,30.21343270554205
2,1, 5,15, 0, 2,37.00,38.00,Thursday
7,23.3
8,30.197069741505306
2,1, 5,15, 0, 2,38.00,39.00,Thursday
7,23.2
8,30.18069790439332
2,1, 5,15, 0, 2,39.00,40.00,Thursday
7,23.2
8,30.164312784452555
2,1, 5,15, 0, 2,40.00,41.00,Thursday
7,23.2
8,30.147913504990132
2,1, 5,15, 0, 2,41.00,42.00,Thursday
7,23.2
8,30.131511085089482
2,1, 5,15, 0, 2,42.00,43.00,Thursday
7,23.2
8,30.115100221180523
2,1, 5,15, 0, 2,43.00,44.00,Thursday
7,23.1
8,30.098676353027557
2,1, 5,15, 0, 2,44.00,45.00,Thursday
7,23.1
8,30.082238342893863
2,1, 5,15, 0, 2,45.00,46.00,Thursday
7,23.1
8,30.065797026763136
2,1, 5,15, 0, 2,46.00,47.00,Thursday
7,23.1
8,30.04934700298057
2,1, 5,15, 0, 2,47.00,48.00,Thursday
7,23.1
8,30.032883665365762
2,1, 5,15, 0, 2,48.00,49.00,Thursday
7,23.0
8,30.016405856482795
2,1, 5,15, 0, 2,49.00,50.00,Thursday
7,23.0
8,29.999924417343312
2,1, 5,15, 0, 2,50.00,51.00,Thursday
7,23.0
8,29.983433943690976
2,1, 5,15, 0, 2,51.00,52.00,Thursday
7,23.0
8,29.966929835396943
2,1, 5,15, 0, 2,52.00,53.00,Thursday
7,23.0
8,29.950410951054312
2,1, 5,15, 0, 2,53.00,54.00,Thursday
7,22.9
8,29.933878046214442
2,1, 5,15, 0, 2,54.00,55.00,Thursday
7,22.9
8,29.917342380602122
2,1, 5,15, 0, 2,55.00,56.00,Thursday
7,22.9
8,29.900798365835044
2,1, 5,15, 0, 2,56.00,57.00,Thursday
7,22.9
8,29.88424112922873
2,1, 5,15, 0, 2,57.00,58.00,Thursday
7,22.9
8,29.867669338028406
2,1, 5,15, 0, 2,58.00,59.00,Thursday
7,22.8
8,29.85108364219812
2,1, 5,15, 0, 2,59.00,60.00,Thursday
7,22.8
8,29.834495258353893
2,1, 5,15, 0, 3, 0.00, 1.00,Thursday
7,22.8
8,29.817898563742283
2,1, 5,15, 0, 3, 1.00, 2.00,Thursday
7,22.8
8,29.801288665750143
2,1, 5,15, 0, 3, 2.00, 3.00,Thursday
7,22.8
8,29.78466422427013
2,1, 5,15, 0, 3, 3.00, 4.00,Thursday
7,22.8
8,29.76802589084323
2,1, 5,15, 0, 3, 4.00, 5.00,Thursday
7,22.7
8,29.751374782385206
2,1, 5,15, 0, 3, 5.00, 6.00,Thursday
7,22.7
8,29.73471182661864
2,1, 5,15, 0, 3, 6.00, 7.00,Thursday
7,22.7
8,29.718047752831865
2,1, 5,15, 0, 3, 7.00, 8.00,Thursday
7,22.7
8,29.701376453711095
2,1, 5,15, 0, 3, 8.00, 9.00,Thursday
7,22.7
8,29.684692717804616
2,1, 5,15, 0, 3, 9.00,10.00,Thursday
7,22.6
8,29.667995019904787
2,1, 5,15, 0, 3,10.00,11.00,Thursday
7,22.6
8,29.651283902605723
2,1, 5,15, 0, 3,11.00,12.00,Thursday
7,22.6
8,29.634560415028968
2,1, 5,15, 0, 3,12.00,13.00,Thursday
7,22.6
8,29.61782544373416
2,1, 5,15, 0, 3,13.00,14.00,Thursday
7,22.6
8,29.601079604780622
2,1, 5,15, 0, 3,14.00,15.00,Thursday
7,22.5
8,29.58432332034567
2,1, 5,15, 0, 3,15.00,16.00,Thursday
7,22.5
8,29.567567000705097
2,1, 5,15, 0, 3,16.00,17.00,Thursday
7,22.5
8,29.550804360703864
2,1, 5,15, 0, 3,17.00,18.00,Thursday
7,22.5
8,29.53403009665608
2,1, 5,15, 0, 3,18.00,19.00,Thursday
7,22.5
8,29.517242636476134
2,1, 5,15, 0, 3,19.00,20.00,Thursday
7,22.5
8,29.50044250087474
2,1, 5,15, 0, 3,20.00,21.00,Thursday
7,22.4
8,29.4836307325397
2,1, 5,15, 0, 3,21.00,22.00,Thursday
7,22.4
8,29.466808221407163
2,1, 5,15, 0, 3,22.00,23.00,Thursday
7,22.4
8,29.449975592198
2,1, 5,15, 0, 3,23.00,24.00,Thursday
7,22.4
8,29.433133277281843
2,1, 5,15, 0, 3,24.00,25.00,Thursday
7,22.4
8,29.416281597003486
2,1, 5,15, 0, 3,25.00,26.00,Thursday
7,22.3
8,29.399420806586658
2,1, 5,15, 0, 3,26.00,27.00,Thursday
7,22.3
8,29.38255111818224
2,1, 5,15, 0, 3,27.00,28.00,Thursday
7,22.3
8,29.365672711775357
2,1, 5,15, 0, 3,28.00,29.00,Thursday
7,22.3
8,29.34878574241787
2,1, 5,15, 0, 3,29.00,30.00,Thursday
7,22.3
8,29.331890346246634
2,1, 5,15, 0, 3,30.00,31.00,Thursday
7,22.3
8,29.314986645611157
2,1, 5,15, 0, 3,31.00,32.00,Thursday
7,22.2
8,29.29807475309227
2,1, 5,15, 0, 3,32.00,33.00,Thursday
7,22.2
8,29.281154774277184
2,1, 5,15, 0, 3,33.00,34.00,Thursday
7,22.2
8,29.264226809462325
2,1, 5,15, 0, 3,34.00,35.00,Thursday
7,22.2
8,29.247290954752845
2,1, 5,15, 0, 3,35.00,36.00,Thursday
7,22.2
8,29.230347303096636
2,1, 5,15, 0, 3,36.00,37.00,Thursday
7,22.2
8,29.213395945533804
2,1, 5,15, 0, 3,37.00,38.00,Thursday
7,22.1
8,29.19643697255146
2,1, 5,15, 0, 3,38.00,39.00,Thursday
7,22.1
8,29.17947047523969
2,1, 5,15, 0, 3,39.00,40.00,Thursday
7,22.1
8,29.162496546078582
2,1, 5,15, 0, 3,40.00,41.00,Thursday
7,22.1
8,29.14551527948382
2,1, 5,15, 0, 3,41.00,42.00,Thursday
7,22.1
8,29.128526772398537
2,1, 5,15, 0, 3,42.00,43.00,Thursday
7,22.1
8,29.111531125068293
2,1, 5,15, 0, 3,43.00,44.00,Thursday
7,22.0
8,29.094528441829326
2,1, 5,15, 0, 3,44.00,45.00,Thursday
7,22.0
8,29.07751883160041
2,1, 5,15, 0, 3,45.00,46.00,Thursday
7,22.0
8,29.06050240793207
2,1, 5,15, 0, 3,46.00,47.00,Thursday
7,22.0
8,29.043479288776076
2,1, 5,15, 0, 3,47.00,48.00,Thursday
7,22.0
8,29.026449596299692
2,1, 5,15, 0, 3,48.00,49.00,Thursday
7,22.0
8,29.009413456913524
2,1, 5,15, 0, 3,49.00,50.00,Thursday
7,21.9
8,28.992371001368205
2,1, 5,15, 0, 3,50.00,51.00,Thursday
7,21.9
8,28.97532236462745
2,1, 5,15, 0, 3,51.00,52.00,Thursday
7,21.9
8,28.95826768538148
2,1, 5,15, 0, 3,52.00,53.00,Thursday
7,21.9
8,28.941207105367678
2,1, 5,15, 0, 3,53.00,54.00,Thursday
7,21.9
8,28.924140768822234
2,1, 5,15, 0, 3,54.00,55.00,Thursday
7,21.9
8,28.90706882222751
2,1, 5,15, 0, 3,55.00,56.00,Thursday
7,21.8
8,28.889991414203966
2,1, 5,15, 0, 3,56.00,57.00,Thursday
7,21.8
8,28.8729086952467
2,1, 5,15, 0, 3,57.00,58.00,Thursday
7,21.8
8,28.85582081716195
2,1, 5,15, 0, 3,58.00,59.00,Thursday
7,21.8
8,28.838727932361902
2,1, 5,15, 0, 3,59.00,60.00,Thursday
7,21.8
8,28.821630193332933
2,1, 5,15, 0, 4, 0.00, 1.00,Thursday
7,21.8
8,28.804527752434364
2,1, 5,15, 0, 4, 1.00, 2.00,Thursday
7,21.8
8,28.78742076186943
2,1, 5,15, 0, 4, 2.00, 3.00,Thursday
7,21.7
8,28.770309373522394
2,1, 5,15, 0, 4, 3.00, 4.00,Thursday
7,21.7
8,28.75319373851281
2,1, 5,15, 0, 4, 4.00, 5.00,Thursday
7,21.7
8,28.736074006639058
2,1, 5,15, 0, 4, 5.00, 6.00,Thursday
7,21.7
8,28.71895032611964
2,1, 5,15, 0, 4, 6.00, 7.00,Thursday
7,21.7
8,28.701822843996997
2,1, 5,15, 0, 4, 7.00, 8.00,Thursday
7,21.7
8,28.68469170721919
2,1, 5,15, 0, 4, 8.00, 9.00,Thursday
7,21.6
8,28.66755706400186
2,1, 5,15, 0, 4, 9.00,10.00,Thursday
7,21.6
8,28.65041906492679
2,1, 5,15, 0, 4,10.00,11.00,Thursday
7,21.6
8,28.633277863454566
2,1, 5,15, 0, 4,11.00,12.00,Thursday
7,21.6
8,28.616133615918077
2,1, 5,15, 0, 4,12.00,13.00,Thursday
7,21.6
8,28.59898648129758
2,1, 5,15, 0, 4,13.00,14.00,Thursday
7,21.6
8,28.58183662097453
2,1, 5,15, 0, 4,14.00,15.00,Thursday
7,21.6
8,28.564684198376664
2,1, 5,15, 0, 4,15.00,16.00,Thursday
7,21.5
8,28.547529378289735
2,1, 5,15, 0, 4,16.00,17.00,Thursday
7,21.5
8,28.530372325765658
2,1, 5,15, 0, 4,17.00,18.00,Thursday
7,21.5
8,28.513213204867238
2,1, 5,15, 0, 4,18.00,19.00,Thursday
7,21.5
8,28.496052177712336
2,1, 5,15, 0, 4,19.00,20.00,Thursday
7,21.5
8,28.47888940422223
2,1, 5,15, 0, 4,20.00,21.00,Thursday
7,21.5
8,28.461725042616923
2,1, 5,15, 0, 4,21.00,22.00,Thursday
7,21.5
8,28.4445592502766
2,1, 5,15, 0, 4,22.00,23.00,Thursday
7,21.4
8,28.42739218443343
2,1, 5,15, 0, 4,23.00,24.00,Thursday
7,21.4
8,28.410224002373454
2,1, 5,15, 0, 4,24.00,25.00,Thursday
7,21.4
8,28.39305486122983
2,1, 5,15, 0, 4,25.00,26.00,Thursday
7,21.4
8,28.375884917757972
2,1, 5,15, 0, 4,26.00,27.00,Thursday
7,21.4
8,28.358714328491484
2,1, 5,15, 0, 4,27.00,28.00,Thursday
7,21.4
8,28.341543250357788
2,1, 5,15, 0, 4,28.00,29.00,Thursday
7,21.4
8,28.324371841429766
2,1, 5,15, 0, 4,29.00,30.00,Thursday
7,21.4
8,28.30720026134116
2,1, 5,15, 0, 4,30.00,31.00,Thursday
7,21.3
8,28.29002867110525
2,1, 5,15, 0, 4,31.00,32.00,Thursday
7,21.3
8,28.27285723247044
2,1, 5,15, 0, 4,32.00,33.00,Thursday
7,21.3
8,28.255676043866604
2,1, 5,15, 0, 4,33.00,34.00,Thursday
7,21.3
8,28.238491771476347
2,1, 5,15, 0, 4,34.00,35.00,Thursday
7,21.3
8,28.221310066424195
2,1, 5,15, 0, 4,35.00,36.00,Thursday
7,21.3
8,28.204132835615482
2,1, 5,15, 0, 4,36.00,37.00,Thursday
7,21.3
8,28.18695987993006
2,1, 5,15, 0, 4,37.00,38.00,Thursday
7,21.3
8,28.16979046392213
2,1, 5,15, 0, 4,38.00,39.00,Thursday
7,21.2
8,28.152623992138544
2,1, 5,15, 0, 4,39.00,40.00,Thursday
7,21.2
8,28.135460124094156
2,1, 5,15, 0, 4,40.00,41.00,Thursday
7,21.2
8,28.118298703697622
2,1, 5,15, 0, 4,41.00,42.00,Thursday
7,21.2
8,28.10113968119351
2,1, 5,15, 0, 4,42.00,43.00,Thursday
7,21.2
8,28.083983069008188
2,1, 5,15, 0, 4,43.00,44.00,Thursday
7,21.2
8,28.066828922851798
2,1, 5,15, 0, 4,44.00,45.00,Thursday
7,21.2
8,28.049677333664235
2,1, 5,15, 0, 4,45.00,46.00,Thursday
7,21.2
8,28.032528422200965
2,1, 5,15, 0, 4,46.00,47.00,Thursday
7,21.1
8,28.015382333523767
2,1, 5,15, 0, 4,47.00,48.00,Thursday
7,21.1
8,27.99823923128838
2,1, 5,15, 0, 4,48.00,49.00,Thursday
7,21.1
8,27.981099292505842
2,1, 5,15, 0, 4,49.00,50.00,Thursday
7,21.1
8,27.963962703431115
2,1, 5,15, 0, 4,50.00,51.00,Thursday
7,21.1
8,27.94682965688181
2,1, 5,15, 0, 4,51.00,52.00,Thursday
7,21.1
8,27.929700350788995
2,1, 5,15, 0, 4,52.00,53.00,Thursday
7,21.1
8,27.91257498735874
2,1, 5,15, 0, 4,53.00,54.00,Thursday
7,21.1
8,27.89545377213891
2,1, 5,15, 0, 4,54.00,55.00,Thursday
7,21.0
8,27.878336912585635
2,1, 5,15, 0, 4,55.00,56.00,Thursday
7,21.0
8,27.86122461619565
2,1, 5,15, 0, 4,56.00,57.00,Thursday
7,21.0
8,27.844117088641944
2,1, 5,15, 0, 4,57.00,58.00,Thursday
7,21.0
8,27.827014532458684
2,1, 5,15, 0, 4,58.00,59.00,Thursday
7,21.0
8,27.809917146619497
2,1, 5,15, 0, 4,59.00,60.00,Thursday
7,21.0
8,27.79282512690977
2,1, 5,15, 0, 5, 0.00, 1.00,Thursday
7,21.0
8,27.775738666567896
2,1, 5,15, 0, 5, 1.00, 2.00,Thursday
7,21.0
8,27.758657956565077
2,1, 5,15, 0, 5, 2.00, 3.00,Thursday
7,21.0
8,27.741583185172914
2,1, 5,15, 0, 5, 3.00, 4.00,Thursday
7,20.9
8,27.724514536926286
2,1, 5,15, 0, 5, 4.00, 5.00,Thursday
7,20.9
8,27.707452191451743
2,1, 5,15, 0, 5, 5.00, 6.00,Thursday
7,20.9
8,27.690396322751024
2,1, 5,15, 0, 5, 6.00, 7.00,Thursday
7,20.9
8,27.67334709940133
2,1, 5,15, 0, 5, 7.00, 8.00,Thursday
7,20.9
8,27.65630468580005
2,1, 5,15, 0, 5, 8.00, 9.00,Thursday
7,20.9
8,27.639269244118427
2,1, 5,15, 0, 5, 9.00,10.00,Thursday
7,20.9
8,27.622240936255935
2,1, 5,15, 0, 5,10.00,11.00,Thursday
7,20.9
8,27.60521992506218
2,1, 5,15, 0, 5,11.00,12.00,Thursday
7,20.9
8,27.588206374449058
2,1, 5,15, 0, 5,12.00,13.00,Thursday
7,20.9
8,27.571200448529254
2,1, 5,15, 0, 5,13.00,14.00,Thursday
7,20.8
8,27.554202310313034
2,1, 5,15, 0, 5,14.00,15.00,Thursday
7,20.8
8,27.537212120629356
2,1, 5,15, 0, 5,15.00,16.00,Thursday
7,20.8
8,27.5202300378267
2,1, 5,15, 0, 5,16.00,17.00,Thursday
7,20.8
8,27.503256218546237
2,1, 5,15, 0, 5,17.00,18.00,Thursday
7,20.8
8,27.48629081949797
2,1, 5,15, 0, 5,18.00,19.00,Thursday
7,20.8
8,27.469333999750752
2,1, 5,15, 0, 5,19.00,20.00,Thursday
7,20.8
8,27.452385922745318
2,1, 5,15, 0, 5,20.00,21.00,Thursday
7,20.8
8,27.435446757281895
2,1, 5,15, 0, 5,21.00,22.00,Thursday
7,20.8
8,27.41851667713837
2,1, 5,15, 0, 5,22.00,23.00,Thursday
7,20.8
8,27.401595859515595
2,1, 5,15, 0, 5,23.00,24.00,Thursday
7,20.8
8,27.384684482911997
2,1, 5,15, 0, 5,24.00,25.00,Thursday
7,20.7
8,27.367782725161153
2,1, 5,15, 0, 5,25.00,26.00,Thursday
7,20.7
8,27.350890762247122
2,1, 5,15, 0, 5,26.00,27.00,Thursday
7,20.7
8,27.334008768254243
2,1, 5,15, 0, 5,27.00,28.00,Thursday
7,20.7
8,27.317136916512123
2,1, 5,15, 0, 5,28.00,29.00,Thursday
7,20.7
8,27.30027538167813
2,1, 5,15, 0, 5,29.00,30.00,Thursday
7,20.7
8,27.283424342153747
2,1, 5,15, 0, 5,30.00,31.00,Thursday
7,20.7
8,27.26658398200121
2,1, 5,15, 0, 5,31.00,32.00,Thursday
7,20.7
8,27.249754491622753
2,1, 5,15, 0, 5,32.00,33.00,Thursday
7,20.7
8,27.23293606690085
2,1, 5,15, 0, 5,33.00,34.00,Thursday
7,20.7
8,27.216128907052227
2,1, 5,15, 0, 5,34.00,35.00,Thursday
7,20.7
8,27.199333211854544
2,1, 5,15, 0, 5,35.00,36.00,Thursday
7,20.7
8,27.182549179029873
2,1, 5,15, 0, 5,36.00,37.00,Thursday
7,20.6
8,27.165777002439828
2,1, 5,15, 0, 5,37.00,38.00,Thursday
7,20.6
8,27.14901687147965
2,1, 5,15, 0, 5,38.00,39.00,Thursday
7,20.6
8,27.132278997225082
2,1, 5,15, 0, 5,39.00,40.00,Thursday
7,20.6
8,27.11555708811986
2,1, 5,15, 0, 5,40.00,41.00,Thursday
7,20.6
8,27.098845861877326
2,1, 5,15, 0, 5,41.00,42.00,Thursday
7,20.6
8,27.082143768475017
2,1, 5,15, 0, 5,42.00,43.00,Thursday
7,20.6
8,27.06545136380859
2,1, 5,15, 0, 5,43.00,44.00,Thursday
7,20.6
8,27.048769748874253
2,1, 5,15, 0, 5,44.00,45.00,Thursday
7,20.6
8,27.03209989530377
2,1, 5,15, 0, 5,45.00,46.00,Thursday
7,20.6
8,27.015442527423343
2,1, 5,15, 0, 5,46.00,47.00,Thursday
7,20.6
8,26.99880820770475
2,1, 5,15, 0, 5,47.00,48.00,Thursday
7,20.6
8,26.9821909005297
2,1, 5,15, 0, 5,48.00,49.00,Thursday
7,20.6
8,26.965585512007454
2,1, 5,15, 0, 5,49.00,50.00,Thursday
7,20.6
8,26.94899062713853
2,1, 5,15, 0, 5,50.00,51.00,Thursday
7,20.5
8,26.932406891869835
2,1, 5,15, 0, 5,51.00,52.00,Thursday
7,20.5
8,26.915835460115662
2,1, 5,15, 0, 5,52.00,53.00,Thursday
7,20.5
8,26.89928734010748
2,1, 5,15, 0, 5,53.00,54.00,Thursday
7,20.5
8,26.882756797934363
2,1, 5,15, 0, 5,54.00,55.00,Thursday
7,20.5
8,26.86623891730208
2,1, 5,15, 0, 5,55.00,56.00,Thursday
7,20.5
8,26.849732398897856
2,1, 5,15, 0, 5,56.00,57.00,Thursday
7,20.5
8,26.833237982735454
2,1, 5,15, 0, 5,57.00,58.00,Thursday
7,20.5
8,26.816766913391014
2,1, 5,15, 0, 5,58.00,59.00,Thursday
7,20.5
8,26.800313810557743
2,1, 5,15, 0, 5,59.00,60.00,Thursday
7,20.5
8,26.783874024826723
2,1, 5,15, 0, 6, 0.00, 1.00,Thursday
7,20.5
8,26.76744642241528
2,1, 5,15, 0, 6, 1.00, 2.00,Thursday
7,20.5
8,26.75104184629523
2,1, 5,15, 0, 6, 2.00, 3.00,Thursday
7,20.5
8,26.734655127329443
2,1, 5,15, 0, 6, 3.00, 4.00,Thursday
7,20.6
8,26.71828190855351
2,1, 5,15, 0, 6, 4.00, 5.00,Thursday
7,20.6
8,26.70192125655555
2,1, 5,15, 0, 6, 5.00, 6.00,Thursday
7,20.6
8,26.685584104628344
2,1, 5,15, 0, 6, 6.00, 7.00,Thursday
7,20.6
8,26.669265349518874
2,1, 5,15, 0, 6, 7.00, 8.00,Thursday
7,20.6
8,26.6529606764295
2,1, 5,15, 0, 6, 8.00, 9.00,Thursday
7,20.6
8,26.63667918981238
2,1, 5,15, 0, 6, 9.00,10.00,Thursday
7,20.7
8,26.620415402157725
2,1, 5,15, 0, 6,10.00,11.00,Thursday
7,20.7
8,26.60416524428805
2,1, 5,15, 0, 6,11.00,12.00,Thursday
7,20.7
8,26.587938173474686
2,1, 5,15, 0, 6,12.00,13.00,Thursday
7,20.7
8,26.571728997065353
2,1, 5,15, 0, 6,13.00,14.00,Thursday
7,20.7
8,26.555533874844826
2,1, 5,15, 0, 6,14.00,15.00,Thursday
7,20.8
8,26.539362446001626
2,1, 5,15, 0, 6,15.00,16.00,Thursday
7,20.8
8,26.523209714811134
2,1, 5,15, 0, 6,16.00,17.00,Thursday
7,20.8
8,26.507072038033215
2,1, 5,15, 0, 6,17.00,18.00,Thursday
7,20.8
8,26.490959227892603
2,1, 5,15, 0, 6,18.00,19.00,Thursday
7,20.8
8,26.474866498497892
2,1, 5,15, 0, 6,19.00,20.00,Thursday
7,20.9
8,26.458800421348304
2,1, 5,15, 0, 6,20.00,21.00,Thursday
7,20.9
8,26.44275457953376
2,1, 5,15, 0, 6,21.00,22.00,Thursday
7,20.9
8,26.426725361531236
2,1, 5,15, 0, 6,22.00,23.00,Thursday
7,20.9
8,26.410723175180543
2,1, 5,15, 0, 6,23.00,24.00,Thursday
7,20.9
8,26.394743913152947
2,1, 5,15, 0, 6,24.00,25.00,Thursday
7,20.9
8,26.378794689313906
2,1, 5,15, 0, 6,25.00,26.00,Thursday
7,21.0
8,26.362869569065612
2,1, 5,15, 0, 6,26.00,27.00,Thursday
7,21.0
8,26.34697533189189
2,1, 5,15, 0, 6,27.00,28.00,Thursday
7,21.0
8,26.331106335376724
2,1, 5,15, 0, 6,28.00,29.00,Thursday
7,21.0
8,26.31526974373396
2,1, 5,15, 0, 6,29.00,30.00,Thursday
7,21.1
8,26.299460219528704
2,1, 5,15, 0, 6,30.00,31.00,Thursday
7,21.1
8,26.28368512414664
2,1, 5,15, 0, 6,31.00,32.00,Thursday
7,21.1
8,26.267939272504492
2,1, 5,15, 0, 6,32.00,33.00,Thursday
7,21.1
8,26.252230118575167
2,1, 5,15, 0, 6,33.00,34.00,Thursday
7,21.1
8,26.23655257146666
2,1, 5,15, 0, 6,34.00,35.00,Thursday
7,21.2
8,26.220914129466053
2,1, 5,15, 0, 6,35.00,36.00,Thursday
7,21.2
8,26.20530976392304
2,1, 5,15, 0, 6,36.00,37.00,Thursday
7,21.2
8,26.189746984999196
2,1, 5,15, 0, 6,37.00,38.00,Thursday
7,21.2
8,26.17423077375321
2,1, 5,15, 0, 6,38.00,39.00,Thursday
7,21.2
8,26.15875233939049
2,1, 5,15, 0, 6,39.00,40.00,Thursday
7,21.3
8,26.143317560573653
2,1, 5,15, 0, 6,40.00,41.00,Thursday
7,21.3
8,26.12793131292227
2,1, 5,15, 0, 6,41.00,42.00,Thursday
7,21.3
8,26.11258523533473
2,1, 5,15, 0, 6,42.00,43.00,Thursday
7,21.3
8,26.097285615364466
2,1, 5,15, 0, 6,43.00,44.00,Thursday
7,21.3
8,26.08203760399122
2,1, 5,15, 0, 6,44.00,45.00,Thursday
7,21.4
8,26.06684302076644
2,1, 5,15, 0, 6,45.00,46.00,Thursday
7,21.4
8,26.051691952243914
2,1, 5,15, 0, 6,46.00,47.00,Thursday
7,21.4
8,26.036590472743484
2,1, 5,15, 0, 6,47.00,48.00,Thursday
7,21.4
8,26.021544050459575
2,1, 5,15, 0, 6,48.00,49.00,Thursday
7,21.5
8,26.006554859203018
2,1, 5,15, 0, 6,49.00,50.00,Thursday
7,21.5
8,25.991623229594744
2,1, 5,15, 0, 6,50.00,51.00,Thursday
7,21.5
8,25.976749074758533
2,1, 5,15, 0, 6,51.00,52.00,Thursday
7,21.5
8,25.961932498843254
2,1, 5,15, 0, 6,52.00,53.00,Thursday
7,21.6
8,25.947173887814834
2,1, 5,15, 0, 6,53.00,54.00,Thursday
7,21.6
8,25.932473829888878
2,1, 5,15, 0, 6,54.00,55.00,Thursday
7,21.6
8,25.917833031084992
2,1, 5,15, 0, 6,55.00,56.00,Thursday
7,21.6
8,25.903252264348694
2,1, 5,15, 0, 6,56.00,57.00,Thursday
7,21.6
8,25.8887323440423
2,1, 5,15, 0, 6,57.00,58.00,Thursday
7,21.7
8,25.874274112388743
2,1, 5,15, 0, 6,58.00,59.00,Thursday
7,21.7
8,25.85987843035783
2,1, 5,15, 0, 6,59.00,60.00,Thursday
7,21.7
8,25.84554617036726
2,1, 5,15, 0, 7, 0.00, 1.00,Thursday
7,21.8
8,25.831278210129145
2,1, 5,15, 0, 7, 1.00, 2.00,Thursday
7,21.9
8,25.817085406873666
2,1, 5,15, 0, 7, 2.00, 3.00,Thursday
7,22.0
8,25.80296236303494
2,1, 5,15, 0, 7, 3.00, 4.00,Thursday
7,22.1
8,25.78890453954876
2,1, 5,15, 0, 7, 4.00, 5.00,Thursday
7,22.1
8,25.774910995232016
2,1, 5,15, 0, 7, 5.00, 6.00,Thursday
7,22.2
8,25.760992793867675
2,1, 5,15, 0, 7, 6.00, 7.00,Thursday
7,22.3
8,25.74714533422694
2,1, 5,15, 0, 7, 7.00, 8.00,Thursday
7,22.4
8,25.73336475764647
2,1, 5,15, 0, 7, 8.00, 9.00,Thursday
7,22.5
8,25.71966049010817
2,1, 5,15, 0, 7, 9.00,10.00,Thursday
7,22.6
8,25.70602769774998
2,1, 5,15, 0, 7,10.00,11.00,Thursday
7,22.6
8,25.692472816093176
2,1, 5,15, 0, 7,11.00,12.00,Thursday
7,22.7
8,25.678989558095644
2,1, 5,15, 0, 7,12.00,13.00,Thursday
7,22.8
8,25.665584259150286
2,1, 5,15, 0, 7,13.00,14.00,Thursday
7,22.9
8,25.652251112984754
2,1, 5,15, 0, 7,14.00,15.00,Thursday
7,23.0
8,25.638996973686577
2,1, 5,15, 0, 7,15.00,16.00,Thursday
7,23.1
8,25.625826487858053
2,1, 5,15, 0, 7,16.00,17.00,Thursday
7,23.2
8,25.612730796146785
2,1, 5,15, 0, 7,17.00,18.00,Thursday
7,23.3
8,25.59971565858334
2,1, 5,15, 0, 7,18.00,19.00,Thursday
7,23.3
8,25.586786098816287
2,1, 5,15, 0, 7,19.00,20.00,Thursday
7,23.4
8,25.573944162437645
2,1, 5,15, 0, 7,20.00,21.00,Thursday
7,23.5
8,25.5611904090863
2,1, 5,15, 0, 7,21.00,22.00,Thursday
7,23.6
8,25.548515284337636
2,1, 5,15, 0, 7,22.00,23.00,Thursday
7,23.7
8,25.535925746949857
2,1, 5,15, 0, 7,23.00,24.00,Thursday
7,23.8
8,25.523428503748473
2,1, 5,15, 0, 7,24.00,25.00,Thursday
7,23.9
8,25.511027139735937
2,1, 5,15, 0, 7,25.00,26.00,Thursday
7,24.0
8,25.49872349005179
2,1, 5,15, 0, 7,26.00,27.00,Thursday
7,24.0
8,25.486519052092472
2,1, 5,15, 0, 7,27.00,28.00,Thursday
7,24.1
8,25.474415600597247
2,1, 5,15, 0, 7,28.00,29.00,Thursday
7,24.2
8,25.462425256380268
2,1, 5,15, 0, 7,29.00,30.00,Thursday
7,24.3
8,25.45054436786625
2,1, 5,15, 0, 7,30.00,31.00,Thursday
7,24.4
8,25.438770223473508
2,1, 5,15, 0, 7,31.00,32.00,Thursday
7,24.5
8,25.42710376438999
2,1, 5,15, 0, 7,32.00,33.00,Thursday
7,24.6
8,25.415558012097144
2,1, 5,15, 0, 7,33.00,34.00,Thursday
7,24.7
8,25.404130652911622
2,1, 5,15, 0, 7,34.00,35.00,Thursday
7,24.8
8,25.392830030665472
2,1, 5,15, 0, 7,35.00,36.00,Thursday
7,24.9
8,25.381651803472835
2,1, 5,15, 0, 7,36.00,37.00,Thursday
7,24.9
8,25.370604185200126
2,1, 5,15, 0, 7,37.00,38.00,Thursday
7,25.0
8,25.359683414679395
2,1, 5,15, 0, 7,38.00,39.00,Thursday
7,25.1
8,25.348898211815605
2,1, 5,15, 0, 7,39.00,40.00,Thursday
7,25.2
8,25.33825513339093
2,1, 5,15, 0, 7,40.00,41.00,Thursday
7,25.3
8,25.327757200110455
2,1, 5,15, 0, 7,41.00,42.00,Thursday
7,25.4
8,25.317405804817938
2,1, 5,15, 0, 7,42.00,43.00,Thursday
7,25.5
8,25.307202165922277
2,1, 5,15, 0, 7,43.00,44.00,Thursday
7,25.6
8,25.297147854260384
2,1, 5,15, 0, 7,44.00,45.00,Thursday
7,25.7
8,25.287244815674992
2,1, 5,15, 0, 7,45.00,46.00,Thursday
7,25.8
8,25.277495253756683
2,1, 5,15, 0, 7,46.00,47.00,Thursday
7,25.8
8,25.26790152553049
2,1, 5,15, 0, 7,47.00,48.00,Thursday
7,25.9
8,25.258476021545807
2,1, 5,15, 0, 7,48.00,49.00,Thursday
7,26.0
8,25.249215339081985
2,1, 5,15, 0, 7,49.00,50.00,Thursday
7,26.1
8,25.240126679792134
2,1, 5,15, 0, 7,50.00,51.00,Thursday
7,26.2
8,25.231204783655926
2,1, 5,15, 0, 7,51.00,52.00,Thursday
7,26.3
8,25.22245692623522
2,1, 5,15, 0, 7,52.00,53.00,Thursday
7,26.4
8,25.213888517802676
2,1, 5,15, 0, 7,53.00,54.00,Thursday
7,26.5
8,25.205491624224763
2,1, 5,15, 0, 7,54.00,55.00,Thursday
7,26.6
8,25.19727249170601
2,1, 5,15, 0, 7,55.00,56.00,Thursday
7,26.7
8,25.1892366987136
2,1, 5,15, 0, 7,56.00,57.00,Thursday
7,26.8
8,25.181386848459184
2,1, 5,15, 0, 7,57.00,58.00,Thursday
7,26.9
8,25.173723920501086
2,1, 5,15, 0, 7,58.00,59.00,Thursday
7,26.9
8,25.16625858531939
2,1, 5,15, 0, 7,59.00,60.00,Thursday
7,27.0
8,25.158985864627354
2,1, 5,15, 0, 8, 0.00, 1.00,Thursday
7,27.1
8,25.151901633365885
2,1, 5,15, 0, 8, 1.00, 2.00,Thursday
7,27.2
8,25.145015253630792
2,1, 5,15, 0, 8, 2.00, 3.00,Thursday
7,27.3
8,25.138322433787987
2,1, 5,15, 0, 8, 3.00, 4.00,Thursday
7,27.4
8,25.131830005144618
2,1, 5,15, 0, 8, 4.00, 5.00,Thursday
7,27.5
8,25.12554239047431
2,1, 5,15, 0, 8, 5.00, 6.00,Thursday
7,27.6
8,25.119460637673935
2,1, 5,15, 0, 8, 6.00, 7.00,Thursday
7,27.7
8,25.11358431707732
2,1, 5,15, 0, 8, 7.00, 8.00,Thursday
7,27.8
8,25.107912890394847
2,1, 5,15, 0, 8, 8.00, 9.00,Thursday
7,27.8
8,25.102446186961533
2,1, 5,15, 0, 8, 9.00,10.00,Thursday
7,27.9
8,25.09718441232572
2,1, 5,15, 0, 8,10.00,11.00,Thursday
7,28.0
8,25.09213880067066
2,1, 5,15, 0, 8,11.00,12.00,Thursday
7,28.1
8,25.08730335160752
2,1, 5,15, 0, 8,12.00,13.00,Thursday
7,28.2
8,25.08268420591604
2,1, 5,15, 0, 8,13.00,14.00,Thursday
7,28.3
8,25.078284553081524
2,1, 5,15, 0, 8,14.00,15.00,Thursday
7,28.4
8,25.074093690580845
2,1, 5,15, 0, 8,15.00,16.00,Thursday
7,28.5
8,25.07011651287929
2,1, 5,15, 0, 8,16.00,17.00,Thursday
7,28.6
8,25.066356896660633
2,1, 5,15, 0, 8,17.00,18.00,Thursday
7,28.7
8,25.06281581918633
2,1, 5,15, 0, 8,18.00,19.00,Thursday
7,28.7
8,25.059511008869638
2,1, 5,15, 0, 8,19.00,20.00,Thursday
7,28.8
8,25.056425457014097
2,1, 5,15, 0, 8,20.00,21.00,Thursday
7,28.9
8,25.053552490157465
2,1, 5,15, 0, 8,21.00,22.00,Thursday
7,29.0
8,25.050906781873106
2,1, 5,15, 0, 8,22.00,23.00,Thursday
7,29.1
8,25.04849172451766
2,1, 5,15, 0, 8,23.00,24.00,Thursday
7,29.2
8,25.04629126458595
2,1, 5,15, 0, 8,24.00,25.00,Thursday
7,29.3
8,25.044311996115805
2,1, 5,15, 0, 8,25.00,26.00,Thursday
7,29.4
8,25.042557082063546
2,1, 5,15, 0, 8,26.00,27.00,Thursday
7,29.5
8,25.04102622457393
2,1, 5,15, 0, 8,27.00,28.00,Thursday
7,29.5
8,25.039717896359893
2,1, 5,15, 0, 8,28.00,29.00,Thursday
7,29.6
8,25.038630621123115
2,1, 5,15, 0, 8,29.00,30.00,Thursday
7,29.7
8,25.037763323017014
2,1, 5,15, 0, 8,30.00,31.00,Thursday
7,29.8
8,25.037115274507943