Program Version,EnergyPlus, Version 25.1.0-68a4a7c774, YMD=2025.11.04 12:55
1,5,Environment Title[],Latitude[deg],Longitude[deg],Time Zone[],Elevation[m]
2,8,Day of Simulation[],Month[],Day of Month[],DST Indicator[1=yes 0=no],Hour[],StartMinute[],EndMinute[],DayType
3,5,Cumulative Day of Simulation[],Month[],Day of Month[],DST Indicator[1=yes 0=no],DayType  ! When Daily Report Variables Requested
4,2,Cumulative Days of Simulation[],Month[]  ! When Monthly Report Variables Requested
5,1,Cumulative Days of Simulation[] ! When Run Period Report Variables Requested
6,1,Calendar Year of Simulation[] ! When Annual Report Variables Requested
7,1,Environment,Site Outdoor Air Drybulb Temperature [C] !TimeStep
8,1,CUBO,Zone Mean Air Temperature [C] !TimeStep
End of Data Dictionary
1,RUN PERIOD 1,  18.85, -99.14,  -6.00,1280.00
2,1, 5,15, 0, 1, 0.00, 1.00,Thursday
7,25.4
8,31.331622026044336
2,1, 5,15, 0, 1, 1.00, 2.00,Thursday
7,25.4
8,31.316013546665772
2,1, 5,15, 0, 1, 2.00, 3.00,Thursday
7,25.4
8,31.300377753615745
2,1, 5,15, 0, 1, 3.00, 4.00,Thursday
7,25.4
8,31.284704002517998
2,1, 5,15, 0, 1, 4.00, 5.00,Thursday
7,25.3
8,31.268988794987123
2,1, 5,15, 0, 1, 5.00, 6.00,Thursday
7,25.3
8,31.253218827009974
2,1, 5,15, 0, 1, 6.00, 7.00,Thursday
7,25.3
8,31.237360683426125
2,1, 5,15, 0, 1, 7.00, 8.00,Thursday
7,25.3
8,31.22139301773235
2,1, 5,15, 0, 1, 8.00, 9.00,Thursday
7,25.2
8,31.20528400245204
2,1, 5,15, 0, 1, 9.00,10.00,Thursday
7,25.2
8,31.189019095613265
2,1, 5,15, 0, 1,10.00,11.00,Thursday
7,25.2
8,31.172576741415
2,1, 5,15, 0, 1,11.00,12.00,Thursday
7,25.2
8,31.155944600729452
2,1, 5,15, 0, 1,12.00,13.00,Thursday
7,25.1
8,31.139120613807727
2,1, 5,15, 0, 1,13.00,14.00,Thursday
7,25.1
8,31.12211009920504
2,1, 5,15, 0, 1,14.00,15.00,Thursday
7,25.1
8,31.104923139591556
2,1, 5,15, 0, 1,15.00,16.00,Thursday
7,25.1
8,31.08757290997498
2,1, 5,15, 0, 1,16.00,17.00,Thursday
7,25.1
8,31.070074594939914
2,1, 5,15, 0, 1,17.00,18.00,Thursday
7,25.0
8,31.052444567619293
2,1, 5,15, 0, 1,18.00,19.00,Thursday
7,25.0
8,31.034699702920037
2,1, 5,15, 0, 1,19.00,20.00,Thursday
7,25.0
8,31.016846615478457
2,1, 5,15, 0, 1,20.00,21.00,Thursday
7,25.0
8,30.998908230393734
2,1, 5,15, 0, 1,21.00,22.00,Thursday
7,24.9
8,30.98089545243794
2,1, 5,15, 0, 1,22.00,23.00,Thursday
7,24.9
8,30.9628310617681
2,1, 5,15, 0, 1,23.00,24.00,Thursday
7,24.9
8,30.944733459632012
2,1, 5,15, 0, 1,24.00,25.00,Thursday
7,24.9
8,30.92660520344012
2,1, 5,15, 0, 1,25.00,26.00,Thursday
7,24.8
8,30.90846243327938
2,1, 5,15, 0, 1,26.00,27.00,Thursday
7,24.8
8,30.8903084846282
2,1, 5,15, 0, 1,27.00,28.00,Thursday
7,24.8
8,30.87215881773067
2,1, 5,15, 0, 1,28.00,29.00,Thursday
7,24.8
8,30.85401470352873
2,1, 5,15, 0, 1,29.00,30.00,Thursday
7,24.7
8,30.83588904123026
2,1, 5,15, 0, 1,30.00,31.00,Thursday
7,24.7
8,30.817780638224463
2,1, 5,15, 0, 1,31.00,32.00,Thursday
7,24.7
8,30.79970019565419
2,1, 5,15, 0, 1,32.00,33.00,Thursday
7,24.7
8,30.781644621512164
2,1, 5,15, 0, 1,33.00,34.00,Thursday
7,24.7
8,30.76362294281901
2,1, 5,15, 0, 1,34.00,35.00,Thursday
7,24.6
8,30.745630620126743
2,1, 5,15, 0, 1,35.00,36.00,Thursday
7,24.6
8,30.727675387631834
2,1, 5,15, 0, 1,36.00,37.00,Thursday
7,24.6
8,30.709751610543517
2,1, 5,15, 0, 1,37.00,38.00,Thursday
7,24.6
8,30.69186606008965
2,1, 5,15, 0, 1,38.00,39.00,Thursday
7,24.5
8,30.6740224399338
2,1, 5,15, 0, 1,39.00,40.00,Thursday
7,24.5
8,30.656210103789334
2,1, 5,15, 0, 1,40.00,41.00,Thursday
7,24.5
8,30.63843326834564
2,1, 5,15, 0, 1,41.00,42.00,Thursday
7,24.5
8,30.620694835116435
2,1, 5,15, 0, 1,42.00,43.00,Thursday
7,24.5
8,30.602984027034996
2,1, 5,15, 0, 1,43.00,44.00,Thursday
7,24.4
8,30.585305020919424
2,1, 5,15, 0, 1,44.00,45.00,Thursday
7,24.4
8,30.567660621353955
2,1, 5,15, 0, 1,45.00,46.00,Thursday
7,24.4
8,30.550039938932844
2,1, 5,15, 0, 1,46.00,47.00,Thursday
7,24.4
8,30.532447004271418
2,1, 5,15, 0, 1,47.00,48.00,Thursday
7,24.3
8,30.51488451866724
2,1, 5,15, 0, 1,48.00,49.00,Thursday
7,24.3
8,30.4973516899671
2,1, 5,15, 0, 1,49.00,50.00,Thursday
7,24.3
8,30.47983581344501
2,1, 5,15, 0, 1,50.00,51.00,Thursday
7,24.3
8,30.462340643702674
2,1, 5,15, 0, 1,51.00,52.00,Thursday
7,24.2
8,30.44486922746932
2,1, 5,15, 0, 1,52.00,53.00,Thursday
7,24.2
8,30.427421192103118
2,1, 5,15, 0, 1,53.00,54.00,Thursday
7,24.2
8,30.409994297165404
2,1, 5,15, 0, 1,54.00,55.00,Thursday
7,24.2
8,30.392575791291563
2,1, 5,15, 0, 1,55.00,56.00,Thursday
7,24.2
8,30.375169909793307
2,1, 5,15, 0, 1,56.00,57.00,Thursday
7,24.1
8,30.357780207012926
2,1, 5,15, 0, 1,57.00,58.00,Thursday
7,24.1
8,30.34040669836884
2,1, 5,15, 0, 1,58.00,59.00,Thursday
7,24.1
8,30.32304742842757
2,1, 5,15, 0, 1,59.00,60.00,Thursday
7,24.1
8,30.305700019241
2,1, 5,15, 0, 2, 0.00, 1.00,Thursday
7,24.0
8,30.288352214113978
2,1, 5,15, 0, 2, 1.00, 2.00,Thursday
7,24.0
8,30.271008821413197
2,1, 5,15, 0, 2, 2.00, 3.00,Thursday
7,24.0
8,30.253673899728337
2,1, 5,15, 0, 2, 3.00, 4.00,Thursday
7,24.0
8,30.236347902149767
2,1, 5,15, 0, 2, 4.00, 5.00,Thursday
7,24.0
8,30.21902927211607
2,1, 5,15, 0, 2, 5.00, 6.00,Thursday
7,23.9
8,30.201716001734113
2,1, 5,15, 0, 2, 6.00, 7.00,Thursday
7,23.9
8,30.18440630071651
2,1, 5,15, 0, 2, 7.00, 8.00,Thursday
7,23.9
8,30.16709870520678
2,1, 5,15, 0, 2, 8.00, 9.00,Thursday
7,23.9
8,30.14978187381315
2,1, 5,15, 0, 2, 9.00,10.00,Thursday
7,23.9
8,30.132461348504982
2,1, 5,15, 0, 2,10.00,11.00,Thursday
7,23.8
8,30.11514176735203
2,1, 5,15, 0, 2,11.00,12.00,Thursday
7,23.8
8,30.09782407148118
2,1, 5,15, 0, 2,12.00,13.00,Thursday
7,23.8
8,30.08050714578398
2,1, 5,15, 0, 2,13.00,14.00,Thursday
7,23.8
8,30.06318940567138
2,1, 5,15, 0, 2,14.00,15.00,Thursday
7,23.7
8,30.04586948166
2,1, 5,15, 0, 2,15.00,16.00,Thursday
7,23.7
8,30.028546329967522
2,1, 5,15, 0, 2,16.00,17.00,Thursday
7,23.7
8,30.011209022834716
2,1, 5,15, 0, 2,17.00,18.00,Thursday
7,23.7
8,29.993863491777926
2,1, 5,15, 0, 2,18.00,19.00,Thursday
7,23.7
8,29.976514738384676
2,1, 5,15, 0, 2,19.00,20.00,Thursday
7,23.6
8,29.95916403507035
2,1, 5,15, 0, 2,20.00,21.00,Thursday
7,23.6
8,29.941810557512937
2,1, 5,15, 0, 2,21.00,22.00,Thursday
7,23.6
8,29.924452966207404
2,1, 5,15, 0, 2,22.00,23.00,Thursday
7,23.6
8,29.90709009391906
2,1, 5,15, 0, 2,23.00,24.00,Thursday
7,23.6
8,29.889710940547833
2,1, 5,15, 0, 2,24.00,25.00,Thursday
7,23.5
8,29.872321424387817
2,1, 5,15, 0, 2,25.00,26.00,Thursday
7,23.5
8,29.854926573284754
2,1, 5,15, 0, 2,26.00,27.00,Thursday
7,23.5
8,29.83752771233305
2,1, 5,15, 0, 2,27.00,28.00,Thursday
7,23.5
8,29.820124097490154
2,1, 5,15, 0, 2,28.00,29.00,Thursday
7,23.4
8,29.80271449877129
2,1, 5,15, 0, 2,29.00,30.00,Thursday
7,23.4
8,29.785287759435725
2,1, 5,15, 0, 2,30.00,31.00,Thursday
7,23.4
8,29.76784971893767
2,1, 5,15, 0, 2,31.00,32.00,Thursday
7,23.4
8,29.750405412756844
2,1, 5,15, 0, 2,32.00,33.00,Thursday
7,23.4
8,29.73295621706688
2,1, 5,15, 0, 2,33.00,34.00,Thursday
7,23.3
8,29.71550144114819
2,1, 5,15, 0, 2,34.00,35.00,Thursday
7,23.3
8,29.698029774605494
2,1, 5,15, 0, 2,35.00,36.00,Thursday
7,23.3
8,29.68054675287024
2,1, 5,15, 0, 2,36.00,37.00,Thursday
7,23.3
8,29.66305717263529
2,1, 5,15, 0, 2,37.00,38.00,Thursday
7,23.3
8,29.645562259703016
2,1, 5,15, 0, 2,38.00,39.00,Thursday
7,23.2
8,29.628061235964637
2,1, 5,15, 0, 2,39.00,40.00,Thursday
7,23.2
8,29.61054273664614
2,1, 5,15, 0, 2,40.00,41.00,Thursday
7,23.2
8,29.59301228947473
2,1, 5,15, 0, 2,41.00,42.00,Thursday
7,23.2
8,29.575474710128884
2,1, 5,15, 0, 2,42.00,43.00,Thursday
7,23.2
8,29.557931263559816
2,1, 5,15, 0, 2,43.00,44.00,Thursday
7,23.1
8,29.540371120359694
2,1, 5,15, 0, 2,44.00,45.00,Thursday
7,23.1
8,29.522799667470853
2,1, 5,15, 0, 2,45.00,46.00,Thursday
7,23.1
8,29.50522147758195
2,1, 5,15, 0, 2,46.00,47.00,Thursday
7,23.1
8,29.48763765668059
2,1, 5,15, 0, 2,47.00,48.00,Thursday
7,23.1
8,29.470037303752463
2,1, 5,15, 0, 2,48.00,49.00,Thursday
7,23.0
8,29.452425792859557
2,1, 5,15, 0, 2,49.00,50.00,Thursday
7,23.0
8,29.434807706301132
2,1, 5,15, 0, 2,50.00,51.00,Thursday
7,23.0
8,29.417184164038428
2,1, 5,15, 0, 2,51.00,52.00,Thursday
7,23.0
8,29.399544267781415
2,1, 5,15, 0, 2,52.00,53.00,Thursday
7,23.0
8,29.38189341636761
2,1, 5,15, 0, 2,53.00,54.00,Thursday
7,22.9
8,29.364236220524965
2,1, 5,15, 0, 2,54.00,55.00,Thursday
7,22.9
8,29.34657382551077
2,1, 5,15, 0, 2,55.00,56.00,Thursday
7,22.9
8,29.328895336200468
2,1, 5,15, 0, 2,56.00,57.00,Thursday
7,22.9
8,29.311206175418672
2,1, 5,15, 0, 2,57.00,58.00,Thursday
7,22.9
8,29.293510975970932
2,1, 5,15, 0, 2,58.00,59.00,Thursday
7,22.8
8,29.275800788497058
2,1, 5,15, 0, 2,59.00,60.00,Thursday
7,22.8
8,29.258081433711254
2,1, 5,15, 0, 3, 0.00, 1.00,Thursday
7,22.8
8,29.240357302561666
2,1, 5,15, 0, 3, 1.00, 2.00,Thursday
7,22.8
8,29.222619128163238
2,1, 5,15, 0, 3, 2.00, 3.00,Thursday
7,22.8
8,29.20487249316438
2,1, 5,15, 0, 3, 3.00, 4.00,Thursday
7,22.8
8,29.18712164618813
2,1, 5,15, 0, 3, 4.00, 5.00,Thursday
7,22.7
8,29.16935723252675
2,1, 5,15, 0, 3, 5.00, 6.00,Thursday
7,22.7
8,29.151584769283215
2,1, 5,15, 0, 3, 6.00, 7.00,Thursday
7,22.7
8,29.133808456860848
2,1, 5,15, 0, 3, 7.00, 8.00,Thursday
7,22.7
8,29.116018915037724
2,1, 5,15, 0, 3, 8.00, 9.00,Thursday
7,22.7
8,29.098221678541517
2,1, 5,15, 0, 3, 9.00,10.00,Thursday
7,22.6
8,29.08042099293941
2,1, 5,15, 0, 3,10.00,11.00,Thursday
7,22.6
8,29.062607523330733
2,1, 5,15, 0, 3,11.00,12.00,Thursday
7,22.6
8,29.044786856104835
2,1, 5,15, 0, 3,12.00,13.00,Thursday
7,22.6
8,29.026963277723414
2,1, 5,15, 0, 3,13.00,14.00,Thursday
7,22.6
8,29.009127473518856
2,1, 5,15, 0, 3,14.00,15.00,Thursday
7,22.5
8,28.991285053123214
2,1, 5,15, 0, 3,15.00,16.00,Thursday
7,22.5
8,28.97344030814459
2,1, 5,15, 0, 3,16.00,17.00,Thursday
7,22.5
8,28.955583897094428
2,1, 5,15, 0, 3,17.00,18.00,Thursday
7,22.5
8,28.93772140519038
2,1, 5,15, 0, 3,18.00,19.00,Thursday
7,22.5
8,28.919847009191525
2,1, 5,15, 0, 3,19.00,20.00,Thursday
7,22.5
8,28.90196801632641
2,1, 5,15, 0, 3,20.00,21.00,Thursday
7,22.4
8,28.884088920709452
2,1, 5,15, 0, 3,21.00,22.00,Thursday
7,22.4
8,28.86620001881682
2,1, 5,15, 0, 3,22.00,23.00,Thursday
7,22.4
8,28.84830645531083
2,1, 5,15, 0, 3,23.00,24.00,Thursday
7,22.4
8,28.830412171618303
2,1, 5,15, 0, 3,24.00,25.00,Thursday
7,22.4
8,28.81250759528612
2,1, 5,15, 0, 3,25.00,26.00,Thursday
7,22.3
8,28.79459817401425
2,1, 5,15, 0, 3,26.00,27.00,Thursday
7,22.3
8,28.77667798809545
2,1, 5,15, 0, 3,27.00,28.00,Thursday
7,22.3
8,28.75875429903268
2,1, 5,15, 0, 3,28.00,29.00,Thursday
7,22.3
8,28.740831587296686
2,1, 5,15, 0, 3,29.00,30.00,Thursday
7,22.3
8,28.722900147209376
2,1, 5,15, 0, 3,30.00,31.00,Thursday
7,22.3
8,28.704965157023096
2,1, 5,15, 0, 3,31.00,32.00,Thursday
7,22.2
8,28.687020489198506
2,1, 5,15, 0, 3,32.00,33.00,Thursday
7,22.2
8,28.669073261031663
2,1, 5,15, 0, 3,33.00,34.00,Thursday
7,22.2
8,28.651127846417676
2,1, 5,15, 0, 3,34.00,35.00,Thursday
7,22.2
8,28.633174453646884
2,1, 5,15, 0, 3,35.00,36.00,Thursday
7,22.2
8,28.615218203821385
2,1, 5,15, 0, 3,36.00,37.00,Thursday
7,22.2
8,28.59725293629088
2,1, 5,15, 0, 3,37.00,38.00,Thursday
7,22.1
8,28.57928576768773
2,1, 5,15, 0, 3,38.00,39.00,Thursday
7,22.1
8,28.561311013134425
2,1, 5,15, 0, 3,39.00,40.00,Thursday
7,22.1
8,28.543335573885262
2,1, 5,15, 0, 3,40.00,41.00,Thursday
7,22.1
8,28.525363538676373
2,1, 5,15, 0, 3,41.00,42.00,Thursday
7,22.1
8,28.507384947521857
2,1, 5,15, 0, 3,42.00,43.00,Thursday
7,22.1
8,28.48940483854708
2,1, 5,15, 0, 3,43.00,44.00,Thursday
7,22.0
8,28.471417022021896
2,1, 5,15, 0, 3,44.00,45.00,Thursday
7,22.0
8,28.45342860419421
2,1, 5,15, 0, 3,45.00,46.00,Thursday
7,22.0
8,28.435433903367763
2,1, 5,15, 0, 3,46.00,47.00,Thursday
7,22.0
8,28.41743983686788
2,1, 5,15, 0, 3,47.00,48.00,Thursday
7,22.0
8,28.399450516434857
2,1, 5,15, 0, 3,48.00,49.00,Thursday
7,22.0
8,28.381455999494218
2,1, 5,15, 0, 3,49.00,50.00,Thursday
7,21.9
8,28.363461336420254
2,1, 5,15, 0, 3,50.00,51.00,Thursday
7,21.9
8,28.345460337412256
2,1, 5,15, 0, 3,51.00,52.00,Thursday
7,21.9
8,28.327460109990067
2,1, 5,15, 0, 3,52.00,53.00,Thursday
7,21.9
8,28.309454971884207
2,1, 5,15, 0, 3,53.00,54.00,Thursday
7,21.9
8,28.29145184375876
2,1, 5,15, 0, 3,54.00,55.00,Thursday
7,21.9
8,28.273454833438247
2,1, 5,15, 0, 3,55.00,56.00,Thursday
7,21.8
8,28.25545397966033
2,1, 5,15, 0, 3,56.00,57.00,Thursday
7,21.8
8,28.23745430786846
2,1, 5,15, 0, 3,57.00,58.00,Thursday
7,21.8
8,28.21944959960097
2,1, 5,15, 0, 3,58.00,59.00,Thursday
7,21.8
8,28.201446938821462
2,1, 5,15, 0, 3,59.00,60.00,Thursday
7,21.8
8,28.183440621295155
2,1, 5,15, 0, 4, 0.00, 1.00,Thursday
7,21.8
8,28.165437541469057
2,1, 5,15, 0, 4, 1.00, 2.00,Thursday
7,21.8
8,28.147431710515495
2,1, 5,15, 0, 4, 2.00, 3.00,Thursday
7,21.7
8,28.129429786065764
2,1, 5,15, 0, 4, 3.00, 4.00,Thursday
7,21.7
8,28.111435691720747
2,1, 5,15, 0, 4, 4.00, 5.00,Thursday
7,21.7
8,28.093439356232235
2,1, 5,15, 0, 4, 5.00, 6.00,Thursday
7,21.7
8,28.075445725941563
2,1, 5,15, 0, 4, 6.00, 7.00,Thursday
7,21.7
8,28.057448559744554
2,1, 5,15, 0, 4, 7.00, 8.00,Thursday
7,21.7
8,28.03945493597017
2,1, 5,15, 0, 4, 8.00, 9.00,Thursday
7,21.6
8,28.02145917430142
2,1, 5,15, 0, 4, 9.00,10.00,Thursday
7,21.6
8,28.00346818693133
2,1, 5,15, 0, 4,10.00,11.00,Thursday
7,21.6
8,27.9854860775625
2,1, 5,15, 0, 4,11.00,12.00,Thursday
7,21.6
8,27.967502906581856
2,1, 5,15, 0, 4,12.00,13.00,Thursday
7,21.6
8,27.94952371575866
2,1, 5,15, 0, 4,13.00,14.00,Thursday
7,21.6
8,27.931542326535677
2,1, 5,15, 0, 4,14.00,15.00,Thursday
7,21.6
8,27.913565833660744
2,1, 5,15, 0, 4,15.00,16.00,Thursday
7,21.5
8,27.895588543951085
2,1, 5,15, 0, 4,16.00,17.00,Thursday
7,21.5
8,27.877617322470126
2,1, 5,15, 0, 4,17.00,18.00,Thursday
7,21.5
8,27.85965621673268
2,1, 5,15, 0, 4,18.00,19.00,Thursday
7,21.5
8,27.841695245264265
2,1, 5,15, 0, 4,19.00,20.00,Thursday
7,21.5
8,27.82373940306637
2,1, 5,15, 0, 4,20.00,21.00,Thursday
7,21.5
8,27.805782492506363
2,1, 5,15, 0, 4,21.00,22.00,Thursday
7,21.5
8,27.787831588367638
2,1, 5,15, 0, 4,22.00,23.00,Thursday
7,21.4
8,27.769891056005633
2,1, 5,15, 0, 4,23.00,24.00,Thursday
7,21.4
8,27.75195113327253
2,1, 5,15, 0, 4,24.00,25.00,Thursday
7,21.4
8,27.73401693669108
2,1, 5,15, 0, 4,25.00,26.00,Thursday
7,21.4
8,27.716082339897284
2,1, 5,15, 0, 4,26.00,27.00,Thursday
7,21.4
8,27.69815447320419
2,1, 5,15, 0, 4,27.00,28.00,Thursday
7,21.4
8,27.680237763290048
2,1, 5,15, 0, 4,28.00,29.00,Thursday
7,21.4
8,27.662322518503128
2,1, 5,15, 0, 4,29.00,30.00,Thursday
7,21.4
8,27.644413898539774
2,1, 5,15, 0, 4,30.00,31.00,Thursday
7,21.3
8,27.626505804064916
2,1, 5,15, 0, 4,31.00,32.00,Thursday
7,21.3
8,27.608605352634843
2,1, 5,15, 0, 4,32.00,33.00,Thursday
7,21.3
8,27.590716954450908
2,1, 5,15, 0, 4,33.00,34.00,Thursday
7,21.3
8,27.57283093892777
2,1, 5,15, 0, 4,34.00,35.00,Thursday
7,21.3
8,27.55495250336264
2,1, 5,15, 0, 4,35.00,36.00,Thursday
7,21.3
8,27.53707563717861
2,1, 5,15, 0, 4,36.00,37.00,Thursday
7,21.3
8,27.519207539818233
2,1, 5,15, 0, 4,37.00,38.00,Thursday
7,21.3
8,27.501352693050265
2,1, 5,15, 0, 4,38.00,39.00,Thursday
7,21.2
8,27.483501485652504
2,1, 5,15, 0, 4,39.00,40.00,Thursday
7,21.2
8,27.465659108966722
2,1, 5,15, 0, 4,40.00,41.00,Thursday
7,21.2
8,27.44782957475344
2,1, 5,15, 0, 4,41.00,42.00,Thursday
7,21.2
8,27.430003467548122
2,1, 5,15, 0, 4,42.00,43.00,Thursday
7,21.2
8,27.412186319763336
2,1, 5,15, 0, 4,43.00,44.00,Thursday
7,21.2
8,27.394382412988804
2,1, 5,15, 0, 4,44.00,45.00,Thursday
7,21.2
8,27.376582494673702
2,1, 5,15, 0, 4,45.00,46.00,Thursday
7,21.2
8,27.358792171344614
2,1, 5,15, 0, 4,46.00,47.00,Thursday
7,21.1
8,27.341015737814338
2,1, 5,15, 0, 4,47.00,48.00,Thursday
7,21.1
8,27.323243931374662
2,1, 5,15, 0, 4,48.00,49.00,Thursday
7,21.1
8,27.30548233819295
2,1, 5,15, 0, 4,49.00,50.00,Thursday
7,21.1
8,27.287735255436743
2,1, 5,15, 0, 4,50.00,51.00,Thursday
7,21.1
8,27.269993461289616
2,1, 5,15, 0, 4,51.00,52.00,Thursday
7,21.1
8,27.252262574338477
2,1, 5,15, 0, 4,52.00,53.00,Thursday
7,21.1
8,27.23454690789562
2,1, 5,15, 0, 4,53.00,54.00,Thursday
7,21.1
8,27.216837238335316
2,1, 5,15, 0, 4,54.00,55.00,Thursday
7,21.0
8,27.19913912598198
2,1, 5,15, 0, 4,55.00,56.00,Thursday
7,21.0
8,27.181456811658713
2,1, 5,15, 0, 4,56.00,57.00,Thursday
7,21.0
8,27.16378103102654
2,1, 5,15, 0, 4,57.00,58.00,Thursday
7,21.0
8,27.146117309219015
2,1, 5,15, 0, 4,58.00,59.00,Thursday
7,21.0
8,27.128469886619754
2,1, 5,15, 0, 4,59.00,60.00,Thursday
7,21.0
8,27.11083955790789
2,1, 5,15, 0, 5, 0.00, 1.00,Thursday
7,21.0
8,27.093215290110642
2,1, 5,15, 0, 5, 1.00, 2.00,Thursday
7,21.0
8,27.075602326034925
2,1, 5,15, 0, 5, 2.00, 3.00,Thursday
7,21.0
8,27.058005170591674
2,1, 5,15, 0, 5, 3.00, 4.00,Thursday
7,20.9
8,27.040424908009893
2,1, 5,15, 0, 5, 4.00, 5.00,Thursday
7,20.9
8,27.022850693101045
2,1, 5,15, 0, 5, 5.00, 6.00,Thursday
7,20.9
8,27.005287883529537
2,1, 5,15, 0, 5, 6.00, 7.00,Thursday
7,20.9
8,26.987741093326505
2,1, 5,15, 0, 5, 7.00, 8.00,Thursday
7,20.9
8,26.97021153872595
2,1, 5,15, 0, 5, 8.00, 9.00,Thursday
7,20.9
8,26.95268853573028
2,1, 5,15, 0, 5, 9.00,10.00,Thursday
7,20.9
8,26.93517755663619
2,1, 5,15, 0, 5,10.00,11.00,Thursday
7,20.9
8,26.917683282485424
2,1, 5,15, 0, 5,11.00,12.00,Thursday
7,20.9
8,26.900206941068607
2,1, 5,15, 0, 5,12.00,13.00,Thursday
7,20.9
8,26.882747854602226
2,1, 5,15, 0, 5,13.00,14.00,Thursday
7,20.8
8,26.865294892276573
2,1, 5,15, 0, 5,14.00,15.00,Thursday
7,20.8
8,26.847853706586147
2,1, 5,15, 0, 5,15.00,16.00,Thursday
7,20.8
8,26.830429282824003
2,1, 5,15, 0, 5,16.00,17.00,Thursday
7,20.8
8,26.81302312444515
2,1, 5,15, 0, 5,17.00,18.00,Thursday
7,20.8
8,26.795634796840258
2,1, 5,15, 0, 5,18.00,19.00,Thursday
7,20.8
8,26.77825341503555
2,1, 5,15, 0, 5,19.00,20.00,Thursday
7,20.8
8,26.76088480615695
2,1, 5,15, 0, 5,20.00,21.00,Thursday
7,20.8
8,26.74353407463253
2,1, 5,15, 0, 5,21.00,22.00,Thursday
7,20.8
8,26.72620277383576
2,1, 5,15, 0, 5,22.00,23.00,Thursday
7,20.8
8,26.708890446554623
2,1, 5,15, 0, 5,23.00,24.00,Thursday
7,20.8
8,26.69159615180101
2,1, 5,15, 0, 5,24.00,25.00,Thursday
7,20.7
8,26.67431913521068
2,1, 5,15, 0, 5,25.00,26.00,Thursday
7,20.7
8,26.657058951983316
2,1, 5,15, 0, 5,26.00,27.00,Thursday
7,20.7
8,26.639805387700992
2,1, 5,15, 0, 5,27.00,28.00,Thursday
7,20.7
8,26.622564909797592
2,1, 5,15, 0, 5,28.00,29.00,Thursday
7,20.7
8,26.605343098791444
2,1, 5,15, 0, 5,29.00,30.00,Thursday
7,20.7
8,26.58814187011714
2,1, 5,15, 0, 5,30.00,31.00,Thursday
7,20.7
8,26.570961063486926
2,1, 5,15, 0, 5,31.00,32.00,Thursday
7,20.7
8,26.55379997992158
2,1, 5,15, 0, 5,32.00,33.00,Thursday
7,20.7
8,26.536658040896093
2,1, 5,15, 0, 5,33.00,34.00,Thursday
7,20.7
8,26.519534898914635
2,1, 5,15, 0, 5,34.00,35.00,Thursday
7,20.7
8,26.50243037252467
2,1, 5,15, 0, 5,35.00,36.00,Thursday
7,20.7
8,26.48534438037715
2,1, 5,15, 0, 5,36.00,37.00,Thursday
7,20.6
8,26.468276911965404
2,1, 5,15, 0, 5,37.00,38.00,Thursday
7,20.6
8,26.45122802332589
2,1, 5,15, 0, 5,38.00,39.00,Thursday
7,20.6
8,26.43419784096053
2,1, 5,15, 0, 5,39.00,40.00,Thursday
7,20.6
8,26.417186562059488
2,1, 5,15, 0, 5,40.00,41.00,Thursday
7,20.6
8,26.400194443093298
2,1, 5,15, 0, 5,41.00,42.00,Thursday
7,20.6
8,26.383221775342253
2,1, 5,15, 0, 5,42.00,43.00,Thursday
7,20.6
8,26.366268853710796
2,1, 5,15, 0, 5,43.00,44.00,Thursday
7,20.6
8,26.34933594867552
2,1, 5,15, 0, 5,44.00,45.00,Thursday
7,20.6
8,26.33242328897586
2,1, 5,15, 0, 5,45.00,46.00,Thursday
7,20.6
8,26.315531057645064
2,1, 5,15, 0, 5,46.00,47.00,Thursday
7,20.6
8,26.298659399588495
2,1, 5,15, 0, 5,47.00,48.00,Thursday
7,20.6
8,26.281808436677192
2,1, 5,15, 0, 5,48.00,49.00,Thursday
7,20.6
8,26.26497828606729
2,1, 5,15, 0, 5,49.00,50.00,Thursday
7,20.6
8,26.248169078326768
2,1, 5,15, 0, 5,50.00,51.00,Thursday
7,20.5
8,26.231380973163077
2,1, 5,15, 0, 5,51.00,52.00,Thursday
7,20.5
8,26.214614171615036
2,1, 5,15, 0, 5,52.00,53.00,Thursday
7,20.5
8,26.197868923822487
2,1, 5,15, 0, 5,53.00,54.00,Thursday
7,20.5
8,26.181145529488283
2,1, 5,15, 0, 5,54.00,55.00,Thursday
7,20.5
8,26.164444326387226
2,1, 5,15, 0, 5,55.00,56.00,Thursday
7,20.5
8,26.14777565765583
2,1, 5,15, 0, 5,56.00,57.00,Thursday
7,20.5
8,26.13113338566052
2,1, 5,15, 0, 5,57.00,58.00,Thursday
7,20.5
8,26.114512330580045
2,1, 5,15, 0, 5,58.00,59.00,Thursday
7,20.5
8,26.097910983278386
2,1, 5,15, 0, 5,59.00,60.00,Thursday
7,20.5
8,26.08132988047684
2,1, 5,15, 0, 6, 0.00, 1.00,Thursday
7,20.5
8,26.064770049347885
2,1, 5,15, 0, 6, 1.00, 2.00,Thursday
7,20.5
8,26.04824233302511
2,1, 5,15, 0, 6, 2.00, 3.00,Thursday
7,20.5
8,26.03174084835502
2,1, 5,15, 0, 6, 3.00, 4.00,Thursday
7,20.6
8,26.015260531986062
2,1, 5,15, 0, 6, 4.00, 5.00,Thursday
7,20.6
8,25.9987999632354
2,1, 5,15, 0, 6, 5.00, 6.00,Thursday
7,20.6
8,25.982359801888364
2,1, 5,15, 0, 6, 6.00, 7.00,Thursday
7,20.6
8,25.965951223219122
2,1, 5,15, 0, 6, 7.00, 8.00,Thursday
7,20.6
8,25.949568884755774
2,1, 5,15, 0, 6, 8.00, 9.00,Thursday
7,20.6
8,25.933208257410538
2,1, 5,15, 0, 6, 9.00,10.00,Thursday
7,20.7
8,25.916868448697674
2,1, 5,15, 0, 6,10.00,11.00,Thursday
7,20.7
8,25.90056064142664
2,1, 5,15, 0, 6,11.00,12.00,Thursday
7,20.7
8,25.884280237644425
2,1, 5,15, 0, 6,12.00,13.00,Thursday
7,20.7
8,25.868023598730847
2,1, 5,15, 0, 6,13.00,14.00,Thursday
7,20.7
8,25.851800616492238
2,1, 5,15, 0, 6,14.00,15.00,Thursday
7,20.8
8,25.835606782200568
2,1, 5,15, 0, 6,15.00,16.00,Thursday
7,20.8
8,25.81943912782728
2,1, 5,15, 0, 6,16.00,17.00,Thursday
7,20.8
8,25.803308269581017
2,1, 5,15, 0, 6,17.00,18.00,Thursday
7,20.8
8,25.78721032991213
2,1, 5,15, 0, 6,18.00,19.00,Thursday
7,20.8
8,25.77114284329316
2,1, 5,15, 0, 6,19.00,20.00,Thursday
7,20.9
8,25.755116798544282
2,1, 5,15, 0, 6,20.00,21.00,Thursday
7,20.9
8,25.739128672333354
2,1, 5,15, 0, 6,21.00,22.00,Thursday
7,20.9
8,25.723186251263215
2,1, 5,15, 0, 6,22.00,23.00,Thursday
7,20.9
8,25.707284392984995
2,1, 5,15, 0, 6,23.00,24.00,Thursday
7,20.9
8,25.69143068917656
2,1, 5,15, 0, 6,24.00,25.00,Thursday
7,20.9
8,25.675620349122024
2,1, 5,15, 0, 6,25.00,26.00,Thursday
7,21.0
8,25.659861350104112
2,1, 5,15, 0, 6,26.00,27.00,Thursday
7,21.0
8,25.644149187544343
2,1, 5,15, 0, 6,27.00,28.00,Thursday
7,21.0
8,25.62849197765866
2,1, 5,15, 0, 6,28.00,29.00,Thursday
7,21.0
8,25.612885293081526
2,1, 5,15, 0, 6,29.00,30.00,Thursday
7,21.1
8,25.597337219201023
2,1, 5,15, 0, 6,30.00,31.00,Thursday
7,21.1
8,25.58185326312605
2,1, 5,15, 0, 6,31.00,32.00,Thursday
7,21.1
8,25.566425110708966
2,1, 5,15, 0, 6,32.00,33.00,Thursday
7,21.1
8,25.55105906990355
2,1, 5,15, 0, 6,33.00,34.00,Thursday
7,21.1
8,25.535760413545876
2,1, 5,15, 0, 6,34.00,35.00,Thursday
7,21.2
8,25.520521175103212
2,1, 5,15, 0, 6,35.00,36.00,Thursday
7,21.2
8,25.505347985969753
2,1, 5,15, 0, 6,36.00,37.00,Thursday
7,21.2
8,25.490246330577605
2,1, 5,15, 0, 6,37.00,38.00,Thursday
7,21.2
8,25.47521834249493
2,1, 5,15, 0, 6,38.00,39.00,Thursday
7,21.2
8,25.460264400172225
2,1, 5,15, 0, 6,39.00,40.00,Thursday
7,21.3
8,25.44538454991801
2,1, 5,15, 0, 6,40.00,41.00,Thursday
7,21.3
8,25.43057908051546
2,1, 5,15, 0, 6,41.00,42.00,Thursday
7,21.3
8,25.415848585058907
2,1, 5,15, 0, 6,42.00,43.00,Thursday
7,21.3
8,25.401193860585902
2,1, 5,15, 0, 6,43.00,44.00,Thursday
7,21.3
8,25.386615810470396
2,1, 5,15, 0, 6,44.00,45.00,Thursday
7,21.4
8,25.372115387729057
2,1, 5,15, 0, 6,45.00,46.00,Thursday
7,21.4
8,25.35769356748282
2,1, 5,15, 0, 6,46.00,47.00,Thursday
7,21.4
8,25.343351329777065
2,1, 5,15, 0, 6,47.00,48.00,Thursday
7,21.4
8,25.32908964377119
2,1, 5,15, 0, 6,48.00,49.00,Thursday
7,21.5
8,25.314909454920727
2,1, 5,15, 0, 6,49.00,50.00,Thursday
7,21.5
8,25.300821628735026
2,1, 5,15, 0, 6,50.00,51.00,Thursday
7,21.5
8,25.28682077511351
2,1, 5,15, 0, 6,51.00,52.00,Thursday
7,21.5
8,25.272902334856585
2,1, 5,15, 0, 6,52.00,53.00,Thursday
7,21.6
8,25.25907528785158
2,1, 5,15, 0, 6,53.00,54.00,Thursday
7,21.6
8,25.245334443167046
2,1, 5,15, 0, 6,54.00,55.00,Thursday
7,21.6
8,25.231676015509834
2,1, 5,15, 0, 6,55.00,56.00,Thursday
7,21.6
8,25.21810960569811
2,1, 5,15, 0, 6,56.00,57.00,Thursday
7,21.6
8,25.204630520562716
2,1, 5,15, 0, 6,57.00,58.00,Thursday
7,21.7
8,25.191245189743224
2,1, 5,15, 0, 6,58.00,59.00,Thursday
7,21.7
8,25.177957267613973
2,1, 5,15, 0, 6,59.00,60.00,Thursday
7,21.7
8,25.164756787258643
2,1, 5,15, 0, 7, 0.00, 1.00,Thursday
7,21.8
8,25.151648453555726
2,1, 5,15, 0, 7, 1.00, 2.00,Thursday
7,21.9
8,25.138636200578077
2,1, 5,15, 0, 7, 2.00, 3.00,Thursday
7,22.0
8,25.1257108923983
2,1, 5,15, 0, 7, 3.00, 4.00,Thursday
7,22.1
8,25.112877869868715
2,1, 5,15, 0, 7, 4.00, 5.00,Thursday
7,22.1
8,25.100141482679618
2,1, 5,15, 0, 7, 5.00, 6.00,Thursday
7,22.2
8,25.087502880898267
2,1, 5,15, 0, 7, 6.00, 7.00,Thursday
7,22.3
8,25.07496159370597
2,1, 5,15, 0, 7, 7.00, 8.00,Thursday
7,22.4
8,25.062516983498995
2,1, 5,15, 0, 7, 8.00, 9.00,Thursday
7,22.5
8,25.050168880293953
2,1, 5,15, 0, 7, 9.00,10.00,Thursday
7,22.6
8,25.037917706035213
2,1, 5,15, 0, 7,10.00,11.00,Thursday
7,22.6
8,25.025764426257894
2,1, 5,15, 0, 7,11.00,12.00,Thursday
7,22.7
8,25.013710489434615
2,1, 5,15, 0, 7,12.00,13.00,Thursday
7,22.8
8,25.001757792188112
2,1, 5,15, 0, 7,13.00,14.00,Thursday
7,22.9
8,24.989918604763567
2,1, 5,15, 0, 7,14.00,15.00,Thursday
7,23.0
8,24.978189564998146
2,1, 5,15, 0, 7,15.00,16.00,Thursday
7,23.1
8,24.96656841611549
2,1, 5,15, 0, 7,16.00,17.00,Thursday
7,23.2
8,24.955066675146192
2,1, 5,15, 0, 7,17.00,18.00,Thursday
7,23.3
8,24.943682174454516
2,1, 5,15, 0, 7,18.00,19.00,Thursday
7,23.3
8,24.932424228329687
2,1, 5,15, 0, 7,19.00,20.00,Thursday
7,23.4
8,24.921289757498922
2,1, 5,15, 0, 7,20.00,21.00,Thursday
7,23.5
8,24.910288330267335
2,1, 5,15, 0, 7,21.00,22.00,Thursday
7,23.6
8,24.899427594535442
2,1, 5,15, 0, 7,22.00,23.00,Thursday
7,23.7
8,24.88870187448821
2,1, 5,15, 0, 7,23.00,24.00,Thursday
7,23.8
8,24.87811996757828
2,1, 5,15, 0, 7,24.00,25.00,Thursday
7,23.9
8,24.867689991153927
2,1, 5,15, 0, 7,25.00,26.00,Thursday
7,24.0
8,24.85741704546931
2,1, 5,15, 0, 7,26.00,27.00,Thursday
7,24.0
8,24.847304601299033
2,1, 5,15, 0, 7,27.00,28.00,Thursday
7,24.1
8,24.83735581102807
2,1, 5,15, 0, 7,28.00,29.00,Thursday
7,24.2
8,24.827574051998706
2,1, 5,15, 0, 7,29.00,30.00,Thursday
7,24.3
8,24.81796299202004
2,1, 5,15, 0, 7,30.00,31.00,Thursday
7,24.4
8,24.808536414363687
2,1, 5,15, 0, 7,31.00,32.00,Thursday
7,24.5
8,24.799292366897543
2,1, 5,15, 0, 7,32.00,33.00,Thursday
7,24.6
8,24.790239448603145
2,1, 5,15, 0, 7,33.00,34.00,Thursday
7,24.7
8,24.78137376987667
2,1, 5,15, 0, 7,34.00,35.00,Thursday
7,24.8
8,24.772703875068576
2,1, 5,15, 0, 7,35.00,36.00,Thursday
7,24.9
8,24.764236374674596
2,1, 5,15, 0, 7,36.00,37.00,Thursday
7,24.9
8,24.755974460599344
2,1, 5,15, 0, 7,37.00,38.00,Thursday
7,25.0
8,24.747919703031414
2,1, 5,15, 0, 7,38.00,39.00,Thursday
7,25.1
8,24.74007346610059
2,1, 5,15, 0, 7,39.00,40.00,Thursday
7,25.2
8,24.732437437603565
2,1, 5,15, 0, 7,40.00,41.00,Thursday
7,25.3
8,24.72501365733437
2,1, 5,15, 0, 7,41.00,42.00,Thursday
7,25.4
8,24.71780439249172
2,1, 5,15, 0, 7,42.00,43.00,Thursday
7,25.5
8,24.710821930763426
2,1, 5,15, 0, 7,43.00,44.00,Thursday
7,25.6
8,24.704062927743212
2,1, 5,15, 0, 7,44.00,45.00,Thursday
7,25.7
8,24.697534396225002
2,1, 5,15, 0, 7,45.00,46.00,Thursday
7,25.8
8,24.691240933806284
2,1, 5,15, 0, 7,46.00,47.00,Thursday
7,25.8
8,24.68518385315835
2,1, 5,15, 0, 7,47.00,48.00,Thursday
7,25.9
8,24.679363046086692
2,1, 5,15, 0, 7,48.00,49.00,Thursday
7,26.0
8,24.673778322870977
2,1, 5,15, 0, 7,49.00,50.00,Thursday
7,26.1
8,24.668429879988825
2,1, 5,15, 0, 7,50.00,51.00,Thursday
7,26.2
8,24.66331830385321
2,1, 5,15, 0, 7,51.00,52.00,Thursday
7,26.3
8,24.658454708721596
2,1, 5,15, 0, 7,52.00,53.00,Thursday
7,26.4
8,24.65383406170894
2,1, 5,15, 0, 7,53.00,54.00,Thursday
7,26.5
8,24.649462370540792
2,1, 5,15, 0, 7,54.00,55.00,Thursday
7,26.6
8,24.645343062318226
2,1, 5,15, 0, 7,55.00,56.00,Thursday
7,26.7
8,24.641476325219656
2,1, 5,15, 0, 7,56.00,57.00,Thursday
7,26.8
8,24.63786098114585
2,1, 5,15, 0, 7,57.00,58.00,Thursday
7,26.9
8,24.634495792304293
2,1, 5,15, 0, 7,58.00,59.00,Thursday
7,26.9
8,24.63137991415233
2,1, 5,15, 0, 7,59.00,60.00,Thursday
7,27.0
8,24.628526695540135
2,1, 5,15, 0, 8, 0.00, 1.00,Thursday
7,27.1
8,24.625925569888317
2,1, 5,15, 0, 8, 1.00, 2.00,Thursday
7,27.2
8,24.623583218733483
2,1, 5,15, 0, 8, 2.00, 3.00,Thursday
7,27.3
8,24.62150177590328
2,1, 5,15, 0, 8, 3.00, 4.00,Thursday
7,27.4
8,24.6196800420071
2,1, 5,15, 0, 8, 4.00, 5.00,Thursday
7,27.5
8,24.61811589832351
2,1, 5,15, 0, 8, 5.00, 6.00,Thursday
7,27.6
8,24.616807483449826
2,1, 5,15, 0, 8, 6.00, 7.00,Thursday
7,27.7
8,24.615753429369892
2,1, 5,15, 0, 8, 7.00, 8.00,Thursday
7,27.8
8,24.614952750135316
2,1, 5,15, 0, 8, 8.00, 9.00,Thursday
7,27.8
8,24.61440470229165
2,1, 5,15, 0, 8, 9.00,10.00,Thursday
7,27.9
8,24.614108703401165
2,1, 5,15, 0, 8,10.00,11.00,Thursday
7,28.0
8,24.61406429823773
2,1, 5,15, 0, 8,11.00,12.00,Thursday
7,28.1
8,24.614271143955648
2,1, 5,15, 0, 8,12.00,13.00,Thursday
7,28.2
8,24.61472673734823
2,1, 5,15, 0, 8,13.00,14.00,Thursday
7,28.3
8,24.615425816330472
2,1, 5,15, 0, 8,14.00,15.00,Thursday
7,28.4
8,24.61636675487745
2,1, 5,15, 0, 8,15.00,16.00,Thursday
7,28.5
8,24.617550656608557
2,1, 5,15, 0, 8,16.00,17.00,Thursday
7,28.6
8,24.618979503741297
2,1, 5,15, 0, 8,17.00,18.00,Thursday
7,28.7
8,24.62065514989572
2,1, 5,15, 0, 8,18.00,19.00,Thursday
7,28.7
8,24.622579053802784
2,1, 5,15, 0, 8,19.00,20.00,Thursday
7,28.8
8,24.624752330520394
2,1, 5,15, 0, 8,20.00,21.00,Thursday
7,28.9
8,24.627175861671667
2,1, 5,15, 0, 8,21.00,22.00,Thursday
7,29.0
8,24.629850375506937
2,1, 5,15, 0, 8,22.00,23.00,Thursday
7,29.1
8,24.632776485625968
2,1, 5,15, 0, 8,23.00,24.00,Thursday
7,29.2
8,24.635954699852753
2,1, 5,15, 0, 8,24.00,25.00,Thursday
7,29.3
8,24.639385414704346
2,1, 5,15, 0, 8,25.00,26.00,Thursday
7,29.4
8,24.643068908875712
2,1, 5,15, 0, 8,26.00,27.00,Thursday
7,29.5
8,24.64700534416792
2,1, 5,15, 0, 8,27.00,28.00,Thursday
7,29.5
8,24.65119477659629
2,1, 5,15, 0, 8,28.00,29.00,Thursday
7,29.6
8,24.65563717609121
2,1, 5,15, 0, 8,29.00,30.00,Thursday
7,29.7
8,24.660332450577908
2,1, 5,15, 0, 8,30.00,31.00,Thursday
7,29.8
8,24.665280467523456