Program Version,EnergyPlus, Version 25.1.0-68a4a7c774, YMD=2025.11.04 13:26
1,5,Environment Title[],Latitude[deg],Longitude[deg],Time Zone[],Elevation[m]
2,8,Day of Simulation[],Month[],Day of Month[],DST Indicator[1=yes 0=no],Hour[],StartMinute[],EndMinute[],DayType
3,5,Cumulative Day of Simulation[],Month[],Day of Month[],DST Indicator[1=yes 0=no],DayType  ! When Daily Report Variables Requested
4,2,Cumulative Days of Simulation[],Month[]  ! When Monthly Report Variables Requested
5,1,Cumulative Days of Simulation[] ! When Run Period Report Variables Requested
6,1,Calendar Year of Simulation[] ! When Annual Report Variables Requested
7,1,Environment,Site Outdoor Air Drybulb Temperature [C] !TimeStep
8,1,CUBO,Zone Mean Air Temperature [C] !TimeStep
End of Data Dictionary
1,RUN PERIOD 1,  18.85, -99.14,  -6.00,1280.00
2,1, 5,15, 0, 1, 0.00, 1.00,Thursday
7,25.4
8,30.633554300345853
2,1, 5,15, 0, 1, 1.00, 2.00,Thursday
7,25.4
8,30.614690012232366
2,1, 5,15, 0, 1, 2.00, 3.00,Thursday
7,25.4
8,30.59577268889997
2,1, 5,15, 0, 1, 3.00, 4.00,Thursday
7,25.4
8,30.576745360653266
2,1, 5,15, 0, 1, 4.00, 5.00,Thursday
7,25.3
8,30.557521332226855
2,1, 5,15, 0, 1, 5.00, 6.00,Thursday
7,25.3
8,30.538003302628667
2,1, 5,15, 0, 1, 6.00, 7.00,Thursday
7,25.3
8,30.51810829544379
2,1, 5,15, 0, 1, 7.00, 8.00,Thursday
7,25.3
8,30.497785048730503
2,1, 5,15, 0, 1, 8.00, 9.00,Thursday
7,25.2
8,30.477009128264353
2,1, 5,15, 0, 1, 9.00,10.00,Thursday
7,25.2
8,30.455805336738713
2,1, 5,15, 0, 1,10.00,11.00,Thursday
7,25.2
8,30.434210977245872
2,1, 5,15, 0, 1,11.00,12.00,Thursday
7,25.2
8,30.41228057887119
2,1, 5,15, 0, 1,12.00,13.00,Thursday
7,25.1
8,30.39007814303543
2,1, 5,15, 0, 1,13.00,14.00,Thursday
7,25.1
8,30.367668996947554
2,1, 5,15, 0, 1,14.00,15.00,Thursday
7,25.1
8,30.34510444124087
2,1, 5,15, 0, 1,15.00,16.00,Thursday
7,25.1
8,30.322445823703244
2,1, 5,15, 0, 1,16.00,17.00,Thursday
7,25.1
8,30.299745749560028
2,1, 5,15, 0, 1,17.00,18.00,Thursday
7,25.0
8,30.27703551275292
2,1, 5,15, 0, 1,18.00,19.00,Thursday
7,25.0
8,30.254353997899525
2,1, 5,15, 0, 1,19.00,20.00,Thursday
7,25.0
8,30.231721773322874
2,1, 5,15, 0, 1,20.00,21.00,Thursday
7,25.0
8,30.2091668332577
2,1, 5,15, 0, 1,21.00,22.00,Thursday
7,24.9
8,30.18670934634539
2,1, 5,15, 0, 1,22.00,23.00,Thursday
7,24.9
8,30.164351280255396
2,1, 5,15, 0, 1,23.00,24.00,Thursday
7,24.9
8,30.142105993040452
2,1, 5,15, 0, 1,24.00,25.00,Thursday
7,24.9
8,30.119982463691326
2,1, 5,15, 0, 1,25.00,26.00,Thursday
7,24.8
8,30.09798398684766
2,1, 5,15, 0, 1,26.00,27.00,Thursday
7,24.8
8,30.076110336589853
2,1, 5,15, 0, 1,27.00,28.00,Thursday
7,24.8
8,30.054359490440692
2,1, 5,15, 0, 1,28.00,29.00,Thursday
7,24.8
8,30.03272843991931
2,1, 5,15, 0, 1,29.00,30.00,Thursday
7,24.7
8,30.011213482063823
2,1, 5,15, 0, 1,30.00,31.00,Thursday
7,24.7
8,29.98981035551741
2,1, 5,15, 0, 1,31.00,32.00,Thursday
7,24.7
8,29.968514382248955
2,1, 5,15, 0, 1,32.00,33.00,Thursday
7,24.7
8,29.947320607019964
2,1, 5,15, 0, 1,33.00,34.00,Thursday
7,24.7
8,29.92622389515428
2,1, 5,15, 0, 1,34.00,35.00,Thursday
7,24.6
8,29.90522916529707
2,1, 5,15, 0, 1,35.00,36.00,Thursday
7,24.6
8,29.884324808380654
2,1, 5,15, 0, 1,36.00,37.00,Thursday
7,24.6
8,29.863500651693162
2,1, 5,15, 0, 1,37.00,38.00,Thursday
7,24.6
8,29.842760422577395
2,1, 5,15, 0, 1,38.00,39.00,Thursday
7,24.5
8,29.82209337466222
2,1, 5,15, 0, 1,39.00,40.00,Thursday
7,24.5
8,29.801490669539
2,1, 5,15, 0, 1,40.00,41.00,Thursday
7,24.5
8,29.78095715402457
2,1, 5,15, 0, 1,41.00,42.00,Thursday
7,24.5
8,29.76048305707979
2,1, 5,15, 0, 1,42.00,43.00,Thursday
7,24.5
8,29.740070423115455
2,1, 5,15, 0, 1,43.00,44.00,Thursday
7,24.4
8,29.71970830583839
2,1, 5,15, 0, 1,44.00,45.00,Thursday
7,24.4
8,29.699398849298785
2,1, 5,15, 0, 1,45.00,46.00,Thursday
7,24.4
8,29.679131765087472
2,1, 5,15, 0, 1,46.00,47.00,Thursday
7,24.4
8,29.658909951953426
2,1, 5,15, 0, 1,47.00,48.00,Thursday
7,24.3
8,29.638733972316942
2,1, 5,15, 0, 1,48.00,49.00,Thursday
7,24.3
8,29.61859088429733
2,1, 5,15, 0, 1,49.00,50.00,Thursday
7,24.3
8,29.598482886164106
2,1, 5,15, 0, 1,50.00,51.00,Thursday
7,24.3
8,29.57841106068045
2,1, 5,15, 0, 1,51.00,52.00,Thursday
7,24.2
8,29.558363288039466
2,1, 5,15, 0, 1,52.00,53.00,Thursday
7,24.2
8,29.538342440776255
2,1, 5,15, 0, 1,53.00,54.00,Thursday
7,24.2
8,29.51835008651683
2,1, 5,15, 0, 1,54.00,55.00,Thursday
7,24.2
8,29.498374511736145
2,1, 5,15, 0, 1,55.00,56.00,Thursday
7,24.2
8,29.478418911100672
2,1, 5,15, 0, 1,56.00,57.00,Thursday
7,24.1
8,29.45848513426124
2,1, 5,15, 0, 1,57.00,58.00,Thursday
7,24.1
8,29.438571900097028
2,1, 5,15, 0, 1,58.00,59.00,Thursday
7,24.1
8,29.41866638745914
2,1, 5,15, 0, 1,59.00,60.00,Thursday
7,24.1
8,29.39877212087154
2,1, 5,15, 0, 2, 0.00, 1.00,Thursday
7,24.0
8,29.378891858877072
2,1, 5,15, 0, 2, 1.00, 2.00,Thursday
7,24.0
8,29.359025295588733
2,1, 5,15, 0, 2, 2.00, 3.00,Thursday
7,24.0
8,29.33916045808529
2,1, 5,15, 0, 2, 3.00, 4.00,Thursday
7,24.0
8,29.319301505832016
2,1, 5,15, 0, 2, 4.00, 5.00,Thursday
7,24.0
8,29.29945164953401
2,1, 5,15, 0, 2, 5.00, 6.00,Thursday
7,23.9
8,29.279610889008804
2,1, 5,15, 0, 2, 6.00, 7.00,Thursday
7,23.9
8,29.259777615076235
2,1, 5,15, 0, 2, 7.00, 8.00,Thursday
7,23.9
8,29.239939828982205
2,1, 5,15, 0, 2, 8.00, 9.00,Thursday
7,23.9
8,29.22010221750315
2,1, 5,15, 0, 2, 9.00,10.00,Thursday
7,23.9
8,29.200268635574403
2,1, 5,15, 0, 2,10.00,11.00,Thursday
7,23.8
8,29.180439714249744
2,1, 5,15, 0, 2,11.00,12.00,Thursday
7,23.8
8,29.16060431286866
2,1, 5,15, 0, 2,12.00,13.00,Thursday
7,23.8
8,29.14076736670253
2,1, 5,15, 0, 2,13.00,14.00,Thursday
7,23.8
8,29.12093291856808
2,1, 5,15, 0, 2,14.00,15.00,Thursday
7,23.7
8,29.10110186635288
2,1, 5,15, 0, 2,15.00,16.00,Thursday
7,23.7
8,29.08127349015368
2,1, 5,15, 0, 2,16.00,17.00,Thursday
7,23.7
8,29.06143659059879
2,1, 5,15, 0, 2,17.00,18.00,Thursday
7,23.7
8,29.041596463050404
2,1, 5,15, 0, 2,18.00,19.00,Thursday
7,23.7
8,29.02175738996447
2,1, 5,15, 0, 2,19.00,20.00,Thursday
7,23.6
8,29.001920273006256
2,1, 5,15, 0, 2,20.00,21.00,Thursday
7,23.6
8,28.982084255703416
2,1, 5,15, 0, 2,21.00,22.00,Thursday
7,23.6
8,28.96223799114746
2,1, 5,15, 0, 2,22.00,23.00,Thursday
7,23.6
8,28.942386720077554
2,1, 5,15, 0, 2,23.00,24.00,Thursday
7,23.6
8,28.92253478580846
2,1, 5,15, 0, 2,24.00,25.00,Thursday
7,23.5
8,28.90268325380725
2,1, 5,15, 0, 2,25.00,26.00,Thursday
7,23.5
8,28.882821373892284
2,1, 5,15, 0, 2,26.00,27.00,Thursday
7,23.5
8,28.862954421502504
2,1, 5,15, 0, 2,27.00,28.00,Thursday
7,23.5
8,28.84308674331784
2,1, 5,15, 0, 2,28.00,29.00,Thursday
7,23.4
8,28.823219510629837
2,1, 5,15, 0, 2,29.00,30.00,Thursday
7,23.4
8,28.8033522498807
2,1, 5,15, 0, 2,30.00,31.00,Thursday
7,23.4
8,28.783473980397506
2,1, 5,15, 0, 2,31.00,32.00,Thursday
7,23.4
8,28.76359020042708
2,1, 5,15, 0, 2,32.00,33.00,Thursday
7,23.4
8,28.743705377149617
2,1, 5,15, 0, 2,33.00,34.00,Thursday
7,23.3
8,28.72382058000613
2,1, 5,15, 0, 2,34.00,35.00,Thursday
7,23.3
8,28.703924970192038
2,1, 5,15, 0, 2,35.00,36.00,Thursday
7,23.3
8,28.684023690204075
2,1, 5,15, 0, 2,36.00,37.00,Thursday
7,23.3
8,28.66412093172882
2,1, 5,15, 0, 2,37.00,38.00,Thursday
7,23.3
8,28.64421770979936
2,1, 5,15, 0, 2,38.00,39.00,Thursday
7,23.2
8,28.624303278331833
2,1, 5,15, 0, 2,39.00,40.00,Thursday
7,23.2
8,28.604382898693302
2,1, 5,15, 0, 2,40.00,41.00,Thursday
7,23.2
8,28.584460884746616
2,1, 5,15, 0, 2,41.00,42.00,Thursday
7,23.2
8,28.564538407523546
2,1, 5,15, 0, 2,42.00,43.00,Thursday
7,23.2
8,28.54460491198384
2,1, 5,15, 0, 2,43.00,44.00,Thursday
7,23.1
8,28.524665839695043
2,1, 5,15, 0, 2,44.00,45.00,Thursday
7,23.1
8,28.504725619490664
2,1, 5,15, 0, 2,45.00,46.00,Thursday
7,23.1
8,28.484785484644824
2,1, 5,15, 0, 2,46.00,47.00,Thursday
7,23.1
8,28.464834942162483
2,1, 5,15, 0, 2,47.00,48.00,Thursday
7,23.1
8,28.444879527039163
2,1, 5,15, 0, 2,48.00,49.00,Thursday
7,23.0
8,28.424923746783637
2,1, 5,15, 0, 2,49.00,50.00,Thursday
7,23.0
8,28.404968852331415
2,1, 5,15, 0, 2,50.00,51.00,Thursday
7,23.0
8,28.38500431961233
2,1, 5,15, 0, 2,51.00,52.00,Thursday
7,23.0
8,28.365035675562087
2,1, 5,15, 0, 2,52.00,53.00,Thursday
7,23.0
8,28.345067455309078
2,1, 5,15, 0, 2,53.00,54.00,Thursday
7,22.9
8,28.325090823906283
2,1, 5,15, 0, 2,54.00,55.00,Thursday
7,22.9
8,28.30511155024857
2,1, 5,15, 0, 2,55.00,56.00,Thursday
7,22.9
8,28.285133916269157
2,1, 5,15, 0, 2,56.00,57.00,Thursday
7,22.9
8,28.265158973189813
2,1, 5,15, 0, 2,57.00,58.00,Thursday
7,22.9
8,28.245176078095046
2,1, 5,15, 0, 2,58.00,59.00,Thursday
7,22.8
8,28.22519060734327
2,1, 5,15, 0, 2,59.00,60.00,Thursday
7,22.8
8,28.205206925887722
2,1, 5,15, 0, 3, 0.00, 1.00,Thursday
7,22.8
8,28.185216088113187
2,1, 5,15, 0, 3, 1.00, 2.00,Thursday
7,22.8
8,28.165223827483118
2,1, 5,15, 0, 3, 2.00, 3.00,Thursday
7,22.8
8,28.14523440064677
2,1, 5,15, 0, 3, 3.00, 4.00,Thursday
7,22.8
8,28.12524876930822
2,1, 5,15, 0, 3, 4.00, 5.00,Thursday
7,22.7
8,28.105256160464773
2,1, 5,15, 0, 3, 5.00, 6.00,Thursday
7,22.7
8,28.085261880598715
2,1, 5,15, 0, 3, 6.00, 7.00,Thursday
7,22.7
8,28.065270374671385
2,1, 5,15, 0, 3, 7.00, 8.00,Thursday
7,22.7
8,28.045272915550967
2,1, 5,15, 0, 3, 8.00, 9.00,Thursday
7,22.7
8,28.02527550944217
2,1, 5,15, 0, 3, 9.00,10.00,Thursday
7,22.6
8,28.005282685218766
2,1, 5,15, 0, 3,10.00,11.00,Thursday
7,22.6
8,27.985295681321357
2,1, 5,15, 0, 3,11.00,12.00,Thursday
7,22.6
8,27.965304025916318
2,1, 5,15, 0, 3,12.00,13.00,Thursday
7,22.6
8,27.945313298635412
2,1, 5,15, 0, 3,13.00,14.00,Thursday
7,22.6
8,27.925328072841193
2,1, 5,15, 0, 3,14.00,15.00,Thursday
7,22.5
8,27.905339528475473
2,1, 5,15, 0, 3,15.00,16.00,Thursday
7,22.5
8,27.885353397195274
2,1, 5,15, 0, 3,16.00,17.00,Thursday
7,22.5
8,27.865373888693124
2,1, 5,15, 0, 3,17.00,18.00,Thursday
7,22.5
8,27.84540195278085
2,1, 5,15, 0, 3,18.00,19.00,Thursday
7,22.5
8,27.825426829436278
2,1, 5,15, 0, 3,19.00,20.00,Thursday
7,22.5
8,27.805453739887263
2,1, 5,15, 0, 3,20.00,21.00,Thursday
7,22.4
8,27.785486880713265
2,1, 5,15, 0, 3,21.00,22.00,Thursday
7,22.4
8,27.765527250792438
2,1, 5,15, 0, 3,22.00,23.00,Thursday
7,22.4
8,27.745564184012256
2,1, 5,15, 0, 3,23.00,24.00,Thursday
7,22.4
8,27.72560314143322
2,1, 5,15, 0, 3,24.00,25.00,Thursday
7,22.4
8,27.705648673488724
2,1, 5,15, 0, 3,25.00,26.00,Thursday
7,22.3
8,27.685692027841487
2,1, 5,15, 0, 3,26.00,27.00,Thursday
7,22.3
8,27.66573903742751
2,1, 5,15, 0, 3,27.00,28.00,Thursday
7,22.3
8,27.645794036209576
2,1, 5,15, 0, 3,28.00,29.00,Thursday
7,22.3
8,27.62585810119709
2,1, 5,15, 0, 3,29.00,30.00,Thursday
7,22.3
8,27.605920603944394
2,1, 5,15, 0, 3,30.00,31.00,Thursday
7,22.3
8,27.585986846547467
2,1, 5,15, 0, 3,31.00,32.00,Thursday
7,22.2
8,27.566061083460564
2,1, 5,15, 0, 3,32.00,33.00,Thursday
7,22.2
8,27.546144351850412
2,1, 5,15, 0, 3,33.00,34.00,Thursday
7,22.2
8,27.52622602546882
2,1, 5,15, 0, 3,34.00,35.00,Thursday
7,22.2
8,27.506311547453656
2,1, 5,15, 0, 3,35.00,36.00,Thursday
7,22.2
8,27.486405435014497
2,1, 5,15, 0, 3,36.00,37.00,Thursday
7,22.2
8,27.466508985474565
2,1, 5,15, 0, 3,37.00,38.00,Thursday
7,22.1
8,27.446611718531223
2,1, 5,15, 0, 3,38.00,39.00,Thursday
7,22.1
8,27.426719091327314
2,1, 5,15, 0, 3,39.00,40.00,Thursday
7,22.1
8,27.406835630271182
2,1, 5,15, 0, 3,40.00,41.00,Thursday
7,22.1
8,27.386962741192747
2,1, 5,15, 0, 3,41.00,42.00,Thursday
7,22.1
8,27.367090142144633
2,1, 5,15, 0, 3,42.00,43.00,Thursday
7,22.1
8,27.347223436475424
2,1, 5,15, 0, 3,43.00,44.00,Thursday
7,22.0
8,27.327367160101726
2,1, 5,15, 0, 3,44.00,45.00,Thursday
7,22.0
8,27.307522606496086
2,1, 5,15, 0, 3,45.00,46.00,Thursday
7,22.0
8,27.287689472418904
2,1, 5,15, 0, 3,46.00,47.00,Thursday
7,22.0
8,27.26785709360688
2,1, 5,15, 0, 3,47.00,48.00,Thursday
7,22.0
8,27.248031263038403
2,1, 5,15, 0, 3,48.00,49.00,Thursday
7,22.0
8,27.228216772490075
2,1, 5,15, 0, 3,49.00,50.00,Thursday
7,21.9
8,27.208415048457102
2,1, 5,15, 0, 3,50.00,51.00,Thursday
7,21.9
8,27.188625777368017
2,1, 5,15, 0, 3,51.00,52.00,Thursday
7,21.9
8,27.168838226507795
2,1, 5,15, 0, 3,52.00,53.00,Thursday
7,21.9
8,27.149058135514117
2,1, 5,15, 0, 3,53.00,54.00,Thursday
7,21.9
8,27.129290309273888
2,1, 5,15, 0, 3,54.00,55.00,Thursday
7,21.9
8,27.10953621318304
2,1, 5,15, 0, 3,55.00,56.00,Thursday
7,21.8
8,27.089795527507242
2,1, 5,15, 0, 3,56.00,57.00,Thursday
7,21.8
8,27.07005745410456
2,1, 5,15, 0, 3,57.00,58.00,Thursday
7,21.8
8,27.050327600382065
2,1, 5,15, 0, 3,58.00,59.00,Thursday
7,21.8
8,27.030610686992212
2,1, 5,15, 0, 3,59.00,60.00,Thursday
7,21.8
8,27.01090817520667
2,1, 5,15, 0, 4, 0.00, 1.00,Thursday
7,21.8
8,26.99121977341701
2,1, 5,15, 0, 4, 1.00, 2.00,Thursday
7,21.8
8,26.971544744129783
2,1, 5,15, 0, 4, 2.00, 3.00,Thursday
7,21.7
8,26.951882454544588
2,1, 5,15, 0, 4, 3.00, 4.00,Thursday
7,21.7
8,26.9322224488955
2,1, 5,15, 0, 4, 4.00, 5.00,Thursday
7,21.7
8,26.91257077720731
2,1, 5,15, 0, 4, 5.00, 6.00,Thursday
7,21.7
8,26.892932564213673
2,1, 5,15, 0, 4, 6.00, 7.00,Thursday
7,21.7
8,26.87330963798913
2,1, 5,15, 0, 4, 7.00, 8.00,Thursday
7,21.7
8,26.853702047588552
2,1, 5,15, 0, 4, 8.00, 9.00,Thursday
7,21.6
8,26.834109366240902
2,1, 5,15, 0, 4, 9.00,10.00,Thursday
7,21.6
8,26.814531230583174
2,1, 5,15, 0, 4,10.00,11.00,Thursday
7,21.6
8,26.79496746555879
2,1, 5,15, 0, 4,11.00,12.00,Thursday
7,21.6
8,26.77541804824912
2,1, 5,15, 0, 4,12.00,13.00,Thursday
7,21.6
8,26.755883005375942
2,1, 5,15, 0, 4,13.00,14.00,Thursday
7,21.6
8,26.736362314752505
2,1, 5,15, 0, 4,14.00,15.00,Thursday
7,21.6
8,26.716855869996444
2,1, 5,15, 0, 4,15.00,16.00,Thursday
7,21.5
8,26.697363523248796
2,1, 5,15, 0, 4,16.00,17.00,Thursday
7,21.5
8,26.677885177816204
2,1, 5,15, 0, 4,17.00,18.00,Thursday
7,21.5
8,26.658420875737928
2,1, 5,15, 0, 4,18.00,19.00,Thursday
7,21.5
8,26.63897081073851
2,1, 5,15, 0, 4,19.00,20.00,Thursday
7,21.5
8,26.61953524861692
2,1, 5,15, 0, 4,20.00,21.00,Thursday
7,21.5
8,26.600114420568115
2,1, 5,15, 0, 4,21.00,22.00,Thursday
7,21.5
8,26.58070846852294
2,1, 5,15, 0, 4,22.00,23.00,Thursday
7,21.4
8,26.561317470715515
2,1, 5,15, 0, 4,23.00,24.00,Thursday
7,21.4
8,26.541941523697442
2,1, 5,15, 0, 4,24.00,25.00,Thursday
7,21.4
8,26.52258082531259
2,1, 5,15, 0, 4,25.00,26.00,Thursday
7,21.4
8,26.503235687297263
2,1, 5,15, 0, 4,26.00,27.00,Thursday
7,21.4
8,26.483906457902673
2,1, 5,15, 0, 4,27.00,28.00,Thursday
7,21.4
8,26.464593418832145
2,1, 5,15, 0, 4,28.00,29.00,Thursday
7,21.4
8,26.445296734781667
2,1, 5,15, 0, 4,29.00,30.00,Thursday
7,21.4
8,26.42601648330355
2,1, 5,15, 0, 4,30.00,31.00,Thursday
7,21.3
8,26.40675274190727
2,1, 5,15, 0, 4,31.00,32.00,Thursday
7,21.3
8,26.387505690286506
2,1, 5,15, 0, 4,32.00,33.00,Thursday
7,21.3
8,26.368275680548493
2,1, 5,15, 0, 4,33.00,34.00,Thursday
7,21.3
8,26.349063221258195
2,1, 5,15, 0, 4,34.00,35.00,Thursday
7,21.3
8,26.329868869734174
2,1, 5,15, 0, 4,35.00,36.00,Thursday
7,21.3
8,26.310693104407044
2,1, 5,15, 0, 4,36.00,37.00,Thursday
7,21.3
8,26.29153625780824
2,1, 5,15, 0, 4,37.00,38.00,Thursday
7,21.3
8,26.272398537314007
2,1, 5,15, 0, 4,38.00,39.00,Thursday
7,21.2
8,26.253280108886912
2,1, 5,15, 0, 4,39.00,40.00,Thursday
7,21.2
8,26.234181199922872
2,1, 5,15, 0, 4,40.00,41.00,Thursday
7,21.2
8,26.215102172585077
2,1, 5,15, 0, 4,41.00,42.00,Thursday
7,21.2
8,26.19604351232356
2,1, 5,15, 0, 4,42.00,43.00,Thursday
7,21.2
8,26.177005725226177
2,1, 5,15, 0, 4,43.00,44.00,Thursday
7,21.2
8,26.15798921546097
2,1, 5,15, 0, 4,44.00,45.00,Thursday
7,21.2
8,26.13900432810508
2,1, 5,15, 0, 4,45.00,46.00,Thursday
7,21.2
8,26.120044937889798
2,1, 5,15, 0, 4,46.00,47.00,Thursday
7,21.1
8,26.10110611180787
2,1, 5,15, 0, 4,47.00,48.00,Thursday
7,21.1
8,26.082186390282512
2,1, 5,15, 0, 4,48.00,49.00,Thursday
7,21.1
8,26.06328620860161
2,1, 5,15, 0, 4,49.00,50.00,Thursday
7,21.1
8,26.04440652751917
2,1, 5,15, 0, 4,50.00,51.00,Thursday
7,21.1
8,26.025558320186704
2,1, 5,15, 0, 4,51.00,52.00,Thursday
7,21.1
8,26.00673596275767
2,1, 5,15, 0, 4,52.00,53.00,Thursday
7,21.1
8,25.987934802103542
2,1, 5,15, 0, 4,53.00,54.00,Thursday
7,21.1
8,25.969153410260382
2,1, 5,15, 0, 4,54.00,55.00,Thursday
7,21.0
8,25.950392043965802
2,1, 5,15, 0, 4,55.00,56.00,Thursday
7,21.0
8,25.93166148140157
2,1, 5,15, 0, 4,56.00,57.00,Thursday
7,21.0
8,25.912956216278392
2,1, 5,15, 0, 4,57.00,58.00,Thursday
7,21.0
8,25.894271920184064
2,1, 5,15, 0, 4,58.00,59.00,Thursday
7,21.0
8,25.875607577541565
2,1, 5,15, 0, 4,59.00,60.00,Thursday
7,21.0
8,25.856973840843132
2,1, 5,15, 0, 5, 0.00, 1.00,Thursday
7,21.0
8,25.838365294862687
2,1, 5,15, 0, 5, 1.00, 2.00,Thursday
7,21.0
8,25.81977749081444
2,1, 5,15, 0, 5, 2.00, 3.00,Thursday
7,21.0
8,25.80121923446431
2,1, 5,15, 0, 5, 3.00, 4.00,Thursday
7,20.9
8,25.782684728053972
2,1, 5,15, 0, 5, 4.00, 5.00,Thursday
7,20.9
8,25.764169896583773
2,1, 5,15, 0, 5, 5.00, 6.00,Thursday
7,20.9
8,25.745684199581547
2,1, 5,15, 0, 5, 6.00, 7.00,Thursday
7,20.9
8,25.727222530136665
2,1, 5,15, 0, 5, 7.00, 8.00,Thursday
7,20.9
8,25.708781314255933
2,1, 5,15, 0, 5, 8.00, 9.00,Thursday
7,20.9
8,25.69037014223699
2,1, 5,15, 0, 5, 9.00,10.00,Thursday
7,20.9
8,25.671983713193214
2,1, 5,15, 0, 5,10.00,11.00,Thursday
7,20.9
8,25.653628142688017
2,1, 5,15, 0, 5,11.00,12.00,Thursday
7,20.9
8,25.63529637037491
2,1, 5,15, 0, 5,12.00,13.00,Thursday
7,20.9
8,25.616984132765772
2,1, 5,15, 0, 5,13.00,14.00,Thursday
7,20.8
8,25.598700990989673
2,1, 5,15, 0, 5,14.00,15.00,Thursday
7,20.8
8,25.580442046656625
2,1, 5,15, 0, 5,15.00,16.00,Thursday
7,20.8
8,25.562214065281825
2,1, 5,15, 0, 5,16.00,17.00,Thursday
7,20.8
8,25.544010838263745
2,1, 5,15, 0, 5,17.00,18.00,Thursday
7,20.8
8,25.525838932541188
2,1, 5,15, 0, 5,18.00,19.00,Thursday
7,20.8
8,25.50769214205474
2,1, 5,15, 0, 5,19.00,20.00,Thursday
7,20.8
8,25.489576861937216
2,1, 5,15, 0, 5,20.00,21.00,Thursday
7,20.8
8,25.471486603943816
2,1, 5,15, 0, 5,21.00,22.00,Thursday
7,20.8
8,25.453427519889193
2,1, 5,15, 0, 5,22.00,23.00,Thursday
7,20.8
8,25.435393070219178
2,1, 5,15, 0, 5,23.00,24.00,Thursday
7,20.8
8,25.417389534047366
2,1, 5,15, 0, 5,24.00,25.00,Thursday
7,20.7
8,25.399410688016268
2,1, 5,15, 0, 5,25.00,26.00,Thursday
7,20.7
8,25.381463201024854
2,1, 5,15, 0, 5,26.00,27.00,Thursday
7,20.7
8,25.363551370684203
2,1, 5,15, 0, 5,27.00,28.00,Thursday
7,20.7
8,25.345666006753767
2,1, 5,15, 0, 5,28.00,29.00,Thursday
7,20.7
8,25.32781263510961
2,1, 5,15, 0, 5,29.00,30.00,Thursday
7,20.7
8,25.309985256253025
2,1, 5,15, 0, 5,30.00,31.00,Thursday
7,20.7
8,25.292190681829837
2,1, 5,15, 0, 5,31.00,32.00,Thursday
7,20.7
8,25.274432906317124
2,1, 5,15, 0, 5,32.00,33.00,Thursday
7,20.7
8,25.256702124181654
2,1, 5,15, 0, 5,33.00,34.00,Thursday
7,20.7
8,25.23900311800257
2,1, 5,15, 0, 5,34.00,35.00,Thursday
7,20.7
8,25.221339470304112
2,1, 5,15, 0, 5,35.00,36.00,Thursday
7,20.7
8,25.203701769381844
2,1, 5,15, 0, 5,36.00,37.00,Thursday
7,20.6
8,25.186095437888223
2,1, 5,15, 0, 5,37.00,38.00,Thursday
7,20.6
8,25.168524761393552
2,1, 5,15, 0, 5,38.00,39.00,Thursday
7,20.6
8,25.150991088623503
2,1, 5,15, 0, 5,39.00,40.00,Thursday
7,20.6
8,25.133484265584894
2,1, 5,15, 0, 5,40.00,41.00,Thursday
7,20.6
8,25.11600993897471
2,1, 5,15, 0, 5,41.00,42.00,Thursday
7,20.6
8,25.0985726305426
2,1, 5,15, 0, 5,42.00,43.00,Thursday
7,20.6
8,25.08117347710224
2,1, 5,15, 0, 5,43.00,44.00,Thursday
7,20.6
8,25.06381176490453
2,1, 5,15, 0, 5,44.00,45.00,Thursday
7,20.6
8,25.04648629468687
2,1, 5,15, 0, 5,45.00,46.00,Thursday
7,20.6
8,25.029185902856522
2,1, 5,15, 0, 5,46.00,47.00,Thursday
7,20.6
8,25.01191581540625
2,1, 5,15, 0, 5,47.00,48.00,Thursday
7,20.6
8,24.994680449590824
2,1, 5,15, 0, 5,48.00,49.00,Thursday
7,20.6
8,24.97748117983852
2,1, 5,15, 0, 5,49.00,50.00,Thursday
7,20.6
8,24.960317900278508
2,1, 5,15, 0, 5,50.00,51.00,Thursday
7,20.5
8,24.943190330550873
2,1, 5,15, 0, 5,51.00,52.00,Thursday
7,20.5
8,24.926098497691072
2,1, 5,15, 0, 5,52.00,53.00,Thursday
7,20.5
8,24.90904275324806
2,1, 5,15, 0, 5,53.00,54.00,Thursday
7,20.5
8,24.892023612530334
2,1, 5,15, 0, 5,54.00,55.00,Thursday
7,20.5
8,24.875041542584796
2,1, 5,15, 0, 5,55.00,56.00,Thursday
7,20.5
8,24.858096786011867
2,1, 5,15, 0, 5,56.00,57.00,Thursday
7,20.5
8,24.841189282589475
2,1, 5,15, 0, 5,57.00,58.00,Thursday
7,20.5
8,24.82431869810494
2,1, 5,15, 0, 5,58.00,59.00,Thursday
7,20.5
8,24.807484525299444
2,1, 5,15, 0, 5,59.00,60.00,Thursday
7,20.5
8,24.790686208785182
2,1, 5,15, 0, 6, 0.00, 1.00,Thursday
7,20.5
8,24.773923257034173
2,1, 5,15, 0, 6, 1.00, 2.00,Thursday
7,20.5
8,24.757195323211306
2,1, 5,15, 0, 6, 2.00, 3.00,Thursday
7,20.5
8,24.74050225164631
2,1, 5,15, 0, 6, 3.00, 4.00,Thursday
7,20.6
8,24.723844095012026
2,1, 5,15, 0, 6, 4.00, 5.00,Thursday
7,20.6
8,24.707221111084333
2,1, 5,15, 0, 6, 5.00, 6.00,Thursday
7,20.6
8,24.690643994053247
2,1, 5,15, 0, 6, 6.00, 7.00,Thursday
7,20.6
8,24.6741071760762
2,1, 5,15, 0, 6, 7.00, 8.00,Thursday
7,20.6
8,24.657606794237086
2,1, 5,15, 0, 6, 8.00, 9.00,Thursday
7,20.6
8,24.64114278472529
2,1, 5,15, 0, 6, 9.00,10.00,Thursday
7,20.7
8,24.624717261167657
2,1, 5,15, 0, 6,10.00,11.00,Thursday
7,20.7
8,24.60834332808108
2,1, 5,15, 0, 6,11.00,12.00,Thursday
7,20.7
8,24.592017763732848
2,1, 5,15, 0, 6,12.00,13.00,Thursday
7,20.7
8,24.57573869656385
2,1, 5,15, 0, 6,13.00,14.00,Thursday
7,20.7
8,24.559517882534116
2,1, 5,15, 0, 6,14.00,15.00,Thursday
7,20.8
8,24.543352409512575
2,1, 5,15, 0, 6,15.00,16.00,Thursday
7,20.8
8,24.52724122174559
2,1, 5,15, 0, 6,16.00,17.00,Thursday
7,20.8
8,24.511196772614152
2,1, 5,15, 0, 6,17.00,18.00,Thursday
7,20.8
8,24.495216625028412
2,1, 5,15, 0, 6,18.00,19.00,Thursday
7,20.8
8,24.479310187186567
2,1, 5,15, 0, 6,19.00,20.00,Thursday
7,20.9
8,24.46347360051291
2,1, 5,15, 0, 6,20.00,21.00,Thursday
7,20.9
8,24.447716066512307
2,1, 5,15, 0, 6,21.00,22.00,Thursday
7,20.9
8,24.43203388678998
2,1, 5,15, 0, 6,22.00,23.00,Thursday
7,20.9
8,24.416436292660585
2,1, 5,15, 0, 6,23.00,24.00,Thursday
7,20.9
8,24.40091955236438
2,1, 5,15, 0, 6,24.00,25.00,Thursday
7,20.9
8,24.385492780071974
2,1, 5,15, 0, 6,25.00,26.00,Thursday
7,21.0
8,24.37016237081568
2,1, 5,15, 0, 6,26.00,27.00,Thursday
7,21.0
8,24.354920941491148
2,1, 5,15, 0, 6,27.00,28.00,Thursday
7,21.0
8,24.33977573083438
2,1, 5,15, 0, 6,28.00,29.00,Thursday
7,21.0
8,24.324732368973915
2,1, 5,15, 0, 6,29.00,30.00,Thursday
7,21.1
8,24.30979326307047
2,1, 5,15, 0, 6,30.00,31.00,Thursday
7,21.1
8,24.29495924093115
2,1, 5,15, 0, 6,31.00,32.00,Thursday
7,21.1
8,24.280230812870688
2,1, 5,15, 0, 6,32.00,33.00,Thursday
7,21.1
8,24.265608643395375
2,1, 5,15, 0, 6,33.00,34.00,Thursday
7,21.1
8,24.25109363301206
2,1, 5,15, 0, 6,34.00,35.00,Thursday
7,21.2
8,24.23668688157194
2,1, 5,15, 0, 6,35.00,36.00,Thursday
7,21.2
8,24.222389605217302
2,1, 5,15, 0, 6,36.00,37.00,Thursday
7,21.2
8,24.208203030402835
2,1, 5,15, 0, 6,37.00,38.00,Thursday
7,21.2
8,24.194128322904106
2,1, 5,15, 0, 6,38.00,39.00,Thursday
7,21.2
8,24.18017722975026
2,1, 5,15, 0, 6,39.00,40.00,Thursday
7,21.3
8,24.16634410890531
2,1, 5,15, 0, 6,40.00,41.00,Thursday
7,21.3
8,24.152625114966323
2,1, 5,15, 0, 6,41.00,42.00,Thursday
7,21.3
8,24.1390302746666
2,1, 5,15, 0, 6,42.00,43.00,Thursday
7,21.3
8,24.125553894603566
2,1, 5,15, 0, 6,43.00,44.00,Thursday
7,21.3
8,24.11220292645329
2,1, 5,15, 0, 6,44.00,45.00,Thursday
7,21.4
8,24.098980957548356
2,1, 5,15, 0, 6,45.00,46.00,Thursday
7,21.4
8,24.085877518287436
2,1, 5,15, 0, 6,46.00,47.00,Thursday
7,21.4
8,24.07289800617522
2,1, 5,15, 0, 6,47.00,48.00,Thursday
7,21.4
8,24.060046026521558
2,1, 5,15, 0, 6,48.00,49.00,Thursday
7,21.5
8,24.04732212794028
2,1, 5,15, 0, 6,49.00,50.00,Thursday
7,21.5
8,24.034725474118947
2,1, 5,15, 0, 6,50.00,51.00,Thursday
7,21.5
8,24.022255043823908
2,1, 5,15, 0, 6,51.00,52.00,Thursday
7,21.5
8,24.009910048364073
2,1, 5,15, 0, 6,52.00,53.00,Thursday
7,21.6
8,23.99768998402549
2,1, 5,15, 0, 6,53.00,54.00,Thursday
7,21.6
8,23.98559458423377
2,1, 5,15, 0, 6,54.00,55.00,Thursday
7,21.6
8,23.97362374829427
2,1, 5,15, 0, 6,55.00,56.00,Thursday
7,21.6
8,23.96177748944111
2,1, 5,15, 0, 6,56.00,57.00,Thursday
7,21.6
8,23.95006778056871
2,1, 5,15, 0, 6,57.00,58.00,Thursday
7,21.7
8,23.938486630449056
2,1, 5,15, 0, 6,58.00,59.00,Thursday
7,21.7
8,23.927029431339424
2,1, 5,15, 0, 6,59.00,60.00,Thursday
7,21.7
8,23.915706877603526
2,1, 5,15, 0, 7, 0.00, 1.00,Thursday
7,21.8
8,23.904511286548196
2,1, 5,15, 0, 7, 1.00, 2.00,Thursday
7,21.9
8,23.893450043597973
2,1, 5,15, 0, 7, 2.00, 3.00,Thursday
7,22.0
8,23.882525974818698
2,1, 5,15, 0, 7, 3.00, 4.00,Thursday
7,22.1
8,23.871726792414364
2,1, 5,15, 0, 7, 4.00, 5.00,Thursday
7,22.1
8,23.861058868529824
2,1, 5,15, 0, 7, 5.00, 6.00,Thursday
7,22.2
8,23.850526091773627
2,1, 5,15, 0, 7, 6.00, 7.00,Thursday
7,22.3
8,23.840129915475345
2,1, 5,15, 0, 7, 7.00, 8.00,Thursday
7,22.4
8,23.829871448229397
2,1, 5,15, 0, 7, 8.00, 9.00,Thursday
7,22.5
8,23.819752651379062
2,1, 5,15, 0, 7, 9.00,10.00,Thursday
7,22.6
8,23.80977662252322
2,1, 5,15, 0, 7,10.00,11.00,Thursday
7,22.6
8,23.799947504007793
2,1, 5,15, 0, 7,11.00,12.00,Thursday
7,22.7
8,23.790270345419366
2,1, 5,15, 0, 7,12.00,13.00,Thursday
7,22.8
8,23.78076567577519
2,1, 5,15, 0, 7,13.00,14.00,Thursday
7,22.9
8,23.771428054645874
2,1, 5,15, 0, 7,14.00,15.00,Thursday
7,23.0
8,23.76225953781533
2,1, 5,15, 0, 7,15.00,16.00,Thursday
7,23.1
8,23.753280935759925
2,1, 5,15, 0, 7,16.00,17.00,Thursday
7,23.2
8,23.744502997594108
2,1, 5,15, 0, 7,17.00,18.00,Thursday
7,23.3
8,23.735917524478346
2,1, 5,15, 0, 7,18.00,19.00,Thursday
7,23.3
8,23.727540397421954
2,1, 5,15, 0, 7,19.00,20.00,Thursday
7,23.4
8,23.719381922201347
2,1, 5,15, 0, 7,20.00,21.00,Thursday
7,23.5
8,23.71144888389109
2,1, 5,15, 0, 7,21.00,22.00,Thursday
7,23.6
8,23.70374704273965
2,1, 5,15, 0, 7,22.00,23.00,Thursday
7,23.7
8,23.696282104633383
2,1, 5,15, 0, 7,23.00,24.00,Thursday
7,23.8
8,23.689079814754844
2,1, 5,15, 0, 7,24.00,25.00,Thursday
7,23.9
8,23.68212651782806
2,1, 5,15, 0, 7,25.00,26.00,Thursday
7,24.0
8,23.675441290849303
2,1, 5,15, 0, 7,26.00,27.00,Thursday
7,24.0
8,23.66901201472484
2,1, 5,15, 0, 7,27.00,28.00,Thursday
7,24.1
8,23.662857589405423
2,1, 5,15, 0, 7,28.00,29.00,Thursday
7,24.2
8,23.656985144361276
2,1, 5,15, 0, 7,29.00,30.00,Thursday
7,24.3
8,23.65139707104795
2,1, 5,15, 0, 7,30.00,31.00,Thursday
7,24.4
8,23.646095170517697
2,1, 5,15, 0, 7,31.00,32.00,Thursday
7,24.5
8,23.641109926907102
2,1, 5,15, 0, 7,32.00,33.00,Thursday
7,24.6
8,23.63641350929618
2,1, 5,15, 0, 7,33.00,34.00,Thursday
7,24.7
8,23.632026760132717
2,1, 5,15, 0, 7,34.00,35.00,Thursday
7,24.8
8,23.62795275279895
2,1, 5,15, 0, 7,35.00,36.00,Thursday
7,24.9
8,23.624188454762912
2,1, 5,15, 0, 7,36.00,37.00,Thursday
7,24.9
8,23.620731691186382
2,1, 5,15, 0, 7,37.00,38.00,Thursday
7,25.0
8,23.617582138169777
2,1, 5,15, 0, 7,38.00,39.00,Thursday
7,25.1
8,23.61476811630524
2,1, 5,15, 0, 7,39.00,40.00,Thursday
7,25.2
8,23.612262891323436
2,1, 5,15, 0, 7,40.00,41.00,Thursday
7,25.3
8,23.610074790618803
2,1, 5,15, 0, 7,41.00,42.00,Thursday
7,25.4
8,23.6082044239645
2,1, 5,15, 0, 7,42.00,43.00,Thursday
7,25.5
8,23.60664760339705
2,1, 5,15, 0, 7,43.00,44.00,Thursday
7,25.6
8,23.605400455919213
2,1, 5,15, 0, 7,44.00,45.00,Thursday
7,25.7
8,23.604460700714476
2,1, 5,15, 0, 7,45.00,46.00,Thursday
7,25.8
8,23.60382713413157
2,1, 5,15, 0, 7,46.00,47.00,Thursday
7,25.8
8,23.603499006500527
2,1, 5,15, 0, 7,47.00,48.00,Thursday
7,25.9
8,23.60347573313222
2,1, 5,15, 0, 7,48.00,49.00,Thursday
7,26.0
8,23.603806166575023
2,1, 5,15, 0, 7,49.00,50.00,Thursday
7,26.1
8,23.60447597131611
2,1, 5,15, 0, 7,50.00,51.00,Thursday
7,26.2
8,23.60546385290389
2,1, 5,15, 0, 7,51.00,52.00,Thursday
7,26.3
8,23.606759200272055
2,1, 5,15, 0, 7,52.00,53.00,Thursday
7,26.4
8,23.608359286610156
2,1, 5,15, 0, 7,53.00,54.00,Thursday
7,26.5
8,23.61026414719078
2,1, 5,15, 0, 7,54.00,55.00,Thursday
7,26.6
8,23.612474020818446
2,1, 5,15, 0, 7,55.00,56.00,Thursday
7,26.7
8,23.614988777966165
2,1, 5,15, 0, 7,56.00,57.00,Thursday
7,26.8
8,23.617808078762472
2,1, 5,15, 0, 7,57.00,58.00,Thursday
7,26.9
8,23.62093160046722
2,1, 5,15, 0, 7,58.00,59.00,Thursday
7,26.9
8,23.62435916119641
2,1, 5,15, 0, 7,59.00,60.00,Thursday
7,27.0
8,23.628090755192606
2,1, 5,15, 0, 8, 0.00, 1.00,Thursday
7,27.1
8,23.632126530809767
2,1, 5,15, 0, 8, 1.00, 2.00,Thursday
7,27.2
8,23.636466702617746
2,1, 5,15, 0, 8, 2.00, 3.00,Thursday
7,27.3
8,23.641111402049646
2,1, 5,15, 0, 8, 3.00, 4.00,Thursday
7,27.4
8,23.646060528750173
2,1, 5,15, 0, 8, 4.00, 5.00,Thursday
7,27.5
8,23.65131367406728
2,1, 5,15, 0, 8, 5.00, 6.00,Thursday
7,27.6
8,23.65687014119657
2,1, 5,15, 0, 8, 6.00, 7.00,Thursday
7,27.7
8,23.662729037087686
2,1, 5,15, 0, 8, 7.00, 8.00,Thursday
7,27.8
8,23.668941636862755
2,1, 5,15, 0, 8, 8.00, 9.00,Thursday
7,27.8
8,23.675439228988456
2,1, 5,15, 0, 8, 9.00,10.00,Thursday
7,27.9
8,23.68227003201863
2,1, 5,15, 0, 8,10.00,11.00,Thursday
7,28.0
8,23.689428074137847
2,1, 5,15, 0, 8,11.00,12.00,Thursday
7,28.1
8,23.69689954857667
2,1, 5,15, 0, 8,12.00,13.00,Thursday
7,28.2
8,23.70467694078159
2,1, 5,15, 0, 8,13.00,14.00,Thursday
7,28.3
8,23.712757888242106
2,1, 5,15, 0, 8,14.00,15.00,Thursday
7,28.4
8,23.72114190414451
2,1, 5,15, 0, 8,15.00,16.00,Thursday
7,28.5
8,23.729828626619184
2,1, 5,15, 0, 8,16.00,17.00,Thursday
7,28.6
8,23.73881739864405
2,1, 5,15, 0, 8,17.00,18.00,Thursday
7,28.7
8,23.748107383682505
2,1, 5,15, 0, 8,18.00,19.00,Thursday
7,28.7
8,23.75769775710781
2,1, 5,15, 0, 8,19.00,20.00,Thursday
7,28.8
8,23.767587830475872
2,1, 5,15, 0, 8,20.00,21.00,Thursday
7,28.9
8,23.777777091034455
2,1, 5,15, 0, 8,21.00,22.00,Thursday
7,29.0
8,23.788265145071314
2,1, 5,15, 0, 8,22.00,23.00,Thursday
7,29.1
8,23.799051580503686
2,1, 5,15, 0, 8,23.00,24.00,Thursday
7,29.2
8,23.810135823062964
2,1, 5,15, 0, 8,24.00,25.00,Thursday
7,29.3
8,23.821517063341386
2,1, 5,15, 0, 8,25.00,26.00,Thursday
7,29.4
8,23.833229503820384
2,1, 5,15, 0, 8,26.00,27.00,Thursday
7,29.5
8,23.84529884253534
2,1, 5,15, 0, 8,27.00,28.00,Thursday
7,29.5
8,23.857707609432367
2,1, 5,15, 0, 8,28.00,29.00,Thursday
7,29.6
8,23.870453944590047
2,1, 5,15, 0, 8,29.00,30.00,Thursday
7,29.7
8,23.88353427167755
2,1, 5,15, 0, 8,30.00,31.00,Thursday
7,29.8
8,23.89695503776434